# vtk DataFile Version 2.0
2D-ADE data file 
ASCII
DATASET RECTILINEAR_GRID
DIMENSIONS 512 128 1
X_COORDINATES 512 int
0 1 2 3 4 5 6 7 8 9 10 11 12 13 14 15 16 17 18 19 20 21 22 23 24 25 26 27 28 29 30 31 32 33 34 35 36 37 38 39 40 41 42 43 44 45 46 47 48 49 50 51 52 53 54 55 56 57 58 59 60 61 62 63 64 65 66 67 68 69 70 71 72 73 74 75 76 77 78 79 80 81 82 83 84 85 86 87 88 89 90 91 92 93 94 95 96 97 98 99 100 101 102 103 104 105 106 107 108 109 110 111 112 113 114 115 116 117 118 119 120 121 122 123 124 125 126 127 128 129 130 131 132 133 134 135 136 137 138 139 140 141 142 143 144 145 146 147 148 149 150 151 152 153 154 155 156 157 158 159 160 161 162 163 164 165 166 167 168 169 170 171 172 173 174 175 176 177 178 179 180 181 182 183 184 185 186 187 188 189 190 191 192 193 194 195 196 197 198 199 200 201 202 203 204 205 206 207 208 209 210 211 212 213 214 215 216 217 218 219 220 221 222 223 224 225 226 227 228 229 230 231 232 233 234 235 236 237 238 239 240 241 242 243 244 245 246 247 248 249 250 251 252 253 254 255 256 257 258 259 260 261 262 263 264 265 266 267 268 269 270 271 272 273 274 275 276 277 278 279 280 281 282 283 284 285 286 287 288 289 290 291 292 293 294 295 296 297 298 299 300 301 302 303 304 305 306 307 308 309 310 311 312 313 314 315 316 317 318 319 320 321 322 323 324 325 326 327 328 329 330 331 332 333 334 335 336 337 338 339 340 341 342 343 344 345 346 347 348 349 350 351 352 353 354 355 356 357 358 359 360 361 362 363 364 365 366 367 368 369 370 371 372 373 374 375 376 377 378 379 380 381 382 383 384 385 386 387 388 389 390 391 392 393 394 395 396 397 398 399 400 401 402 403 404 405 406 407 408 409 410 411 412 413 414 415 416 417 418 419 420 421 422 423 424 425 426 427 428 429 430 431 432 433 434 435 436 437 438 439 440 441 442 443 444 445 446 447 448 449 450 451 452 453 454 455 456 457 458 459 460 461 462 463 464 465 466 467 468 469 470 471 472 473 474 475 476 477 478 479 480 481 482 483 484 485 486 487 488 489 490 491 492 493 494 495 496 497 498 499 500 501 502 503 504 505 506 507 508 509 510 511 
Y_COORDINATES 128 int
0 1 2 3 4 5 6 7 8 9 10 11 12 13 14 15 16 17 18 19 20 21 22 23 24 25 26 27 28 29 30 31 32 33 34 35 36 37 38 39 40 41 42 43 44 45 46 47 48 49 50 51 52 53 54 55 56 57 58 59 60 61 62 63 64 65 66 67 68 69 70 71 72 73 74 75 76 77 78 79 80 81 82 83 84 85 86 87 88 89 90 91 92 93 94 95 96 97 98 99 100 101 102 103 104 105 106 107 108 109 110 111 112 113 114 115 116 117 118 119 120 121 122 123 124 125 126 127 
Z_COORDINATES 1 int
0
POINT_DATA 65536 
SCALARS density double 1
LOOKUP_TABLE default
-2.074501e-002 
-3.063592e-002 
-2.721414e-002 
-2.678251e-002 
-2.688466e-002 
-2.682732e-002 
-2.697441e-002 
-2.688629e-002 
-2.684966e-002 
-2.686751e-002 
-2.694764e-002 
-2.685342e-002 
-2.691970e-002 
-2.682329e-002 
-2.688858e-002 
-2.695846e-002 
-2.680347e-002 
-2.686362e-002 
-2.694681e-002 
-2.683953e-002 
-2.685303e-002 
-2.690399e-002 
-2.686544e-002 
-2.687460e-002 
-2.688777e-002 
-2.684372e-002 
-2.689552e-002 
-2.691668e-002 
-2.682375e-002 
-2.684329e-002 
-2.696252e-002 
-2.685598e-002 
-2.676230e-002 
-2.694992e-002 
-2.695218e-002 
-2.672777e-002 
-2.686317e-002 
-2.703088e-002 
-2.679988e-002 
-2.675202e-002 
-2.702192e-002 
-2.693091e-002 
-2.670884e-002 
-2.690962e-002 
-2.704751e-002 
-2.675701e-002 
-2.678499e-002 
-2.703318e-002 
-2.689155e-002 
-2.670517e-002 
-2.698066e-002 
-2.693973e-002 
-2.677058e-002 
-2.690023e-002 
-2.691349e-002 
-2.687296e-002 
-2.686194e-002 
-2.685596e-002 
-2.692398e-002 
-2.690324e-002 
-2.679718e-002 
-2.687643e-002 
-2.698785e-002 
-2.679798e-002 
-2.679168e-002 
-2.699345e-002 
-2.690056e-002 
-2.670118e-002 
-2.694529e-002 
-2.696963e-002 
-2.671709e-002 
-2.685099e-002 
-2.697262e-002 
-2.679583e-002 
-2.677648e-002 
-2.693162e-002 
-2.683644e-002 
-2.679826e-002 
-2.684372e-002 
-2.685950e-002 
-2.683182e-002 
-2.681606e-002 
-2.682352e-002 
-2.682981e-002 
-2.684466e-002 
-2.679157e-002 
-2.679781e-002 
-2.683437e-002 
-2.681715e-002 
-2.674555e-002 
-2.680478e-002 
-2.685173e-002 
-2.672469e-002 
-2.675902e-002 
-2.685025e-002 
-2.674184e-002 
-2.666705e-002 
-2.685103e-002 
-2.680671e-002 
-2.661112e-002 
-2.673978e-002 
-2.683803e-002 
-2.662941e-002 
-2.657964e-002 
-2.678944e-002 
-2.676818e-002 
-2.652968e-002 
-2.660111e-002 
-2.679422e-002 
-2.664482e-002 
-2.647767e-002 
-2.663563e-002 
-2.672230e-002 
-2.647945e-002 
-2.651534e-002 
-2.670478e-002 
-2.652893e-002 
-2.646167e-002 
-2.660705e-002 
-2.654674e-002 
-2.650648e-002 
-2.641201e-002 
-2.659998e-002 
-2.654365e-002 
-2.624842e-002 
-2.662086e-002 
-2.650347e-002 
-2.628105e-002 
-2.639469e-002 
-2.653520e-002 
-2.634040e-002 
-2.622947e-002 
-2.646752e-002 
-2.639570e-002 
-2.620432e-002 
-2.624488e-002 
-2.643029e-002 
-2.622644e-002 
-2.616102e-002 
-2.630214e-002 
-2.630333e-002 
-2.610188e-002 
-2.618542e-002 
-2.628565e-002 
-2.616068e-002 
-2.607196e-002 
-2.621870e-002 
-2.619286e-002 
-2.603442e-002 
-2.611986e-002 
-2.617199e-002 
-2.606159e-002 
-2.601630e-002 
-2.611642e-002 
-2.608396e-002 
-2.597939e-002 
-2.605245e-002 
-2.608982e-002 
-2.594895e-002 
-2.600805e-002 
-2.603902e-002 
-2.598447e-002 
-2.593391e-002 
-2.599152e-002 
-2.599986e-002 
-2.592610e-002 
-2.592141e-002 
-2.598545e-002 
-2.598271e-002 
-2.592048e-002 
-2.595240e-002 
-2.601877e-002 
-2.596229e-002 
-2.591597e-002 
-2.598155e-002 
-2.600212e-002 
-2.594243e-002 
-2.597257e-002 
-2.604042e-002 
-2.601652e-002 
-2.598169e-002 
-2.602827e-002 
-2.605232e-002 
-2.599995e-002 
-2.600108e-002 
-2.604690e-002 
-2.603322e-002 
-2.599068e-002 
-2.600785e-002 
-2.604774e-002 
-2.602665e-002 
-2.599530e-002 
-2.602919e-002 
-2.606147e-002 
-2.602383e-002 
-2.599443e-002 
-2.604403e-002 
-2.605824e-002 
-2.598768e-002 
-2.599213e-002 
-2.605901e-002 
-2.601901e-002 
-2.596036e-002 
-2.602285e-002 
-2.605284e-002 
-2.597388e-002 
-2.596956e-002 
-2.604731e-002 
-2.601519e-002 
-2.592945e-002 
-2.597778e-002 
-2.603461e-002 
-2.594094e-002 
-2.589235e-002 
-2.599026e-002 
-2.597232e-002 
-2.588211e-002 
-2.590236e-002 
-2.599534e-002 
-2.596282e-002 
-2.590638e-002 
-2.599261e-002 
-2.602879e-002 
-2.589360e-002 
-2.588767e-002 
-2.596699e-002 
-2.589405e-002 
-2.580025e-002 
-2.587337e-002 
-2.591955e-002 
-2.580921e-002 
-2.579972e-002 
-2.590837e-002 
-2.586987e-002 
-2.576171e-002 
-2.581029e-002 
-2.583958e-002 
-2.569924e-002 
-2.562297e-002 
-2.563041e-002 
-2.551910e-002 
-2.538945e-002 
-2.540195e-002 
-2.538765e-002 
-2.529222e-002 
-2.529966e-002 
-2.540419e-002 
-2.542569e-002 
-2.543548e-002 
-2.558781e-002 
-2.572979e-002 
-2.579037e-002 
-2.592060e-002 
-2.610541e-002 
-2.621233e-002 
-2.628727e-002 
-2.642019e-002 
-2.652381e-002 
-2.655596e-002 
-2.659495e-002 
-2.666395e-002 
-2.668709e-002 
-2.666911e-002 
-2.668256e-002 
-2.671292e-002 
-2.669659e-002 
-2.666302e-002 
-2.667628e-002 
-2.669589e-002 
-2.666029e-002 
-2.663124e-002 
-2.666680e-002 
-2.667336e-002 
-2.661454e-002 
-2.661931e-002 
-2.666979e-002 
-2.663017e-002 
-2.657212e-002 
-2.662954e-002 
-2.665429e-002 
-2.656687e-002 
-2.655825e-002 
-2.664408e-002 
-2.660752e-002 
-2.652441e-002 
-2.658732e-002 
-2.664073e-002 
-2.654714e-002 
-2.652269e-002 
-2.662022e-002 
-2.659660e-002 
-2.650066e-002 
-2.655304e-002 
-2.661807e-002 
-2.652747e-002 
-2.649028e-002 
-2.658123e-002 
-2.657294e-002 
-2.647725e-002 
-2.651380e-002 
-2.657711e-002 
-2.651533e-002 
-2.647362e-002 
-2.654260e-002 
-2.654816e-002 
-2.647809e-002 
-2.649479e-002 
-2.655359e-002 
-2.651497e-002 
-2.647146e-002 
-2.653157e-002 
-2.655309e-002 
-2.649052e-002 
-2.649272e-002 
-2.656280e-002 
-2.653889e-002 
-2.648170e-002 
-2.652490e-002 
-2.657927e-002 
-2.652276e-002 
-2.648594e-002 
-2.655503e-002 
-2.657527e-002 
-2.650047e-002 
-2.650613e-002 
-2.657720e-002 
-2.654864e-002 
-2.649388e-002 
-2.654158e-002 
-2.657378e-002 
-2.652054e-002 
-2.651044e-002 
-2.656167e-002 
-2.655124e-002 
-2.650580e-002 
-2.653246e-002 
-2.656478e-002 
-2.653036e-002 
-2.651362e-002 
-2.654938e-002 
-2.654879e-002 
-2.652139e-002 
-2.653188e-002 
-2.655077e-002 
-2.653450e-002 
-2.652463e-002 
-2.654061e-002 
-2.653733e-002 
-2.652074e-002 
-2.652777e-002 
-2.653632e-002 
-2.652274e-002 
-2.651771e-002 
-2.652611e-002 
-2.652909e-002 
-2.651880e-002 
-2.651521e-002 
-2.652489e-002 
-2.652891e-002 
-2.651490e-002 
-2.651321e-002 
-2.652457e-002 
-2.651750e-002 
-2.650387e-002 
-2.651221e-002 
-2.651207e-002 
-2.649964e-002 
-2.649966e-002 
-2.650834e-002 
-2.649695e-002 
-2.648624e-002 
-2.649943e-002 
-2.650225e-002 
-2.648227e-002 
-2.648408e-002 
-2.649970e-002 
-2.648749e-002 
-2.647681e-002 
-2.649486e-002 
-2.649023e-002 
-2.647451e-002 
-2.648957e-002 
-2.649827e-002 
-2.647068e-002 
-2.647488e-002 
-2.649932e-002 
-2.648417e-002 
-2.646192e-002 
-2.648615e-002 
-2.649861e-002 
-2.647017e-002 
-2.646577e-002 
-2.648963e-002 
-2.648686e-002 
-2.646655e-002 
-2.646881e-002 
-2.648212e-002 
-2.647542e-002 
-2.646639e-002 
-2.646951e-002 
-2.647386e-002 
-2.647241e-002 
-2.647055e-002 
-2.647195e-002 
-2.647451e-002 
-2.646597e-002 
-2.646569e-002 
-2.647412e-002 
-2.647057e-002 
-2.645945e-002 
-2.646405e-002 
-2.647681e-002 
-2.647340e-002 
-2.646000e-002 
-2.647134e-002 
-2.648113e-002 
-2.647504e-002 
-2.647150e-002 
-2.647340e-002 
-2.647263e-002 
-2.648053e-002 
-2.648297e-002 
-2.647405e-002 
-2.647353e-002 
-2.649026e-002 
-2.648943e-002 
-2.647384e-002 
-2.647933e-002 
-2.649064e-002 
-2.647800e-002 
-2.646877e-002 
-2.648011e-002 
-2.647369e-002 
-2.645880e-002 
-2.646557e-002 
-2.647406e-002 
-2.645674e-002 
-2.644806e-002 
-2.646969e-002 
-2.646911e-002 
-2.644605e-002 
-2.645412e-002 
-2.647155e-002 
-2.645663e-002 
-2.644369e-002 
-2.645856e-002 
-2.646277e-002 
-2.644223e-002 
-2.644562e-002 
-2.646194e-002 
-2.644669e-002 
-2.643335e-002 
-2.645228e-002 
-2.645275e-002 
-2.643106e-002 
-2.643843e-002 
-2.645174e-002 
-2.643303e-002 
-2.642070e-002 
-2.644502e-002 
-2.644440e-002 
-2.641578e-002 
-2.642709e-002 
-2.645509e-002 
-2.643091e-002 
-2.641470e-002 
-2.644343e-002 
-2.644834e-002 
-2.642273e-002 
-2.642877e-002 
-2.645313e-002 
-2.643978e-002 
-2.642439e-002 
-2.644577e-002 
-2.645154e-002 
-2.642957e-002 
-2.643345e-002 
-2.645070e-002 
-2.643927e-002 
-2.642826e-002 
-2.644011e-002 
-2.644421e-002 
-2.643083e-002 
-2.642763e-002 
-2.643802e-002 
-2.643806e-002 
-2.642768e-002 
-2.642937e-002 
-2.643940e-002 
-2.643378e-002 
-2.642607e-002 
-2.643183e-002 
-2.644179e-002 
-2.643396e-002 
-2.642789e-002 
-2.643593e-002 
-2.644213e-002 
-2.643411e-002 
-2.643190e-002 
-2.644201e-002 
-2.643866e-002 
-2.642836e-002 
-2.643181e-002 
-2.643630e-002 
-2.642823e-002 
-2.642398e-002 
-2.643184e-002 
-2.642919e-002 
-2.641706e-002 
-2.641768e-002 
-2.642879e-002 
-2.072275e-002 
1.110223e-016 
-4.813050e-002 
-4.195313e-002 
-4.478458e-002 
-4.842018e-002 
-4.624178e-002 
-4.415685e-002 
-4.614158e-002 
-4.737761e-002 
-4.511001e-002 
-4.491205e-002 
-4.711741e-002 
-4.638912e-002 
-4.464482e-002 
-4.587785e-002 
-4.691641e-002 
-4.556281e-002 
-4.500108e-002 
-4.658150e-002 
-4.634278e-002 
-4.491654e-002 
-4.582111e-002 
-4.669064e-002 
-4.547654e-002 
-4.533158e-002 
-4.644443e-002 
-4.598475e-002 
-4.527871e-002 
-4.609442e-002 
-4.625270e-002 
-4.536810e-002 
-4.566969e-002 
-4.633042e-002 
-4.567608e-002 
-4.545942e-002 
-4.617920e-002 
-4.591041e-002 
-4.538436e-002 
-4.607640e-002 
-4.628578e-002 
-4.539227e-002 
-4.557101e-002 
-4.651716e-002 
-4.594585e-002 
-4.518142e-002 
-4.617527e-002 
-4.637708e-002 
-4.523079e-002 
-4.569993e-002 
-4.666752e-002 
-4.539886e-002 
-4.523053e-002 
-4.677138e-002 
-4.593985e-002 
-4.498818e-002 
-4.619116e-002 
-4.651660e-002 
-4.531718e-002 
-4.550194e-002 
-4.653996e-002 
-4.596151e-002 
-4.514414e-002 
-4.595595e-002 
-4.651167e-002 
-4.539939e-002 
-4.536616e-002 
-4.647441e-002 
-4.585494e-002 
-4.503351e-002 
-4.615197e-002 
-4.634825e-002 
-4.501593e-002 
-4.550094e-002 
-4.642659e-002 
-4.559525e-002 
-4.508143e-002 
-4.596182e-002 
-4.591699e-002 
-4.521005e-002 
-4.559422e-002 
-4.597556e-002 
-4.540346e-002 
-4.526391e-002 
-4.586657e-002 
-4.565064e-002 
-4.517830e-002 
-4.542824e-002 
-4.569395e-002 
-4.545501e-002 
-4.516543e-002 
-4.523708e-002 
-4.554227e-002 
-4.553617e-002 
-4.498634e-002 
-4.504508e-002 
-4.557914e-002 
-4.515663e-002 
-4.452924e-002 
-4.532358e-002 
-4.592342e-002 
-4.463781e-002 
-4.401530e-002 
-4.504498e-002 
-4.530952e-002 
-4.456281e-002 
-4.438694e-002 
-4.457494e-002 
-4.453271e-002 
-4.468556e-002 
-4.460489e-002 
-4.393228e-002 
-4.404046e-002 
-4.463101e-002 
-4.408884e-002 
-4.346697e-002 
-4.428205e-002 
-4.459617e-002 
-4.342083e-002 
-4.331905e-002 
-4.429769e-002 
-4.409972e-002 
-4.313333e-002 
-4.315826e-002 
-4.420284e-002 
-4.352026e-002 
-4.252377e-002 
-4.371031e-002 
-4.370493e-002 
-4.241900e-002 
-4.254687e-002 
-4.356279e-002 
-4.287507e-002 
-4.220541e-002 
-4.284553e-002 
-4.276633e-002 
-4.190219e-002 
-4.219844e-002 
-4.277262e-002 
-4.191830e-002 
-4.163676e-002 
-4.242746e-002 
-4.207510e-002 
-4.105687e-002 
-4.177442e-002 
-4.245411e-002 
-4.135575e-002 
-4.079794e-002 
-4.187756e-002 
-4.177467e-002 
-4.075017e-002 
-4.112888e-002 
-4.166004e-002 
-4.080311e-002 
-4.051687e-002 
-4.138081e-002 
-4.121178e-002 
-4.022000e-002 
-4.067973e-002 
-4.130490e-002 
-4.050970e-002 
-4.004762e-002 
-4.073533e-002 
-4.091831e-002 
-4.015217e-002 
-4.002779e-002 
-4.061040e-002 
-4.051553e-002 
-3.996409e-002 
-4.024084e-002 
-4.072642e-002 
-4.036875e-002 
-4.009924e-002 
-4.055519e-002 
-4.059870e-002 
-4.009336e-002 
-4.022683e-002 
-4.075583e-002 
-4.058085e-002 
-4.032278e-002 
-4.077320e-002 
-4.095655e-002 
-4.051712e-002 
-4.055551e-002 
-4.095760e-002 
-4.078020e-002 
-4.050658e-002 
-4.073616e-002 
-4.089251e-002 
-4.065012e-002 
-4.052360e-002 
-4.079477e-002 
-4.094372e-002 
-4.067290e-002 
-4.059003e-002 
-4.092540e-002 
-4.090764e-002 
-4.055009e-002 
-4.066790e-002 
-4.094116e-002 
-4.065546e-002 
-4.043993e-002 
-4.079176e-002 
-4.085215e-002 
-4.042608e-002 
-4.050531e-002 
-4.092157e-002 
-4.066790e-002 
-4.029218e-002 
-4.063835e-002 
-4.082797e-002 
-4.027044e-002 
-4.016348e-002 
-4.068835e-002 
-4.047615e-002 
-3.990198e-002 
-4.016566e-002 
-4.051740e-002 
-4.010501e-002 
-3.994656e-002 
-4.051704e-002 
-4.065865e-002 
-4.024646e-002 
-4.037143e-002 
-4.055730e-002 
-3.999673e-002 
-3.963793e-002 
-3.999993e-002 
-4.003299e-002 
-3.956550e-002 
-3.958785e-002 
-3.993385e-002 
-3.974271e-002 
-3.947067e-002 
-3.973095e-002 
-3.981348e-002 
-3.933717e-002 
-3.914533e-002 
-3.916094e-002 
-3.865542e-002 
-3.801323e-002 
-3.763563e-002 
-3.714919e-002 
-3.675103e-002 
-3.670570e-002 
-3.655799e-002 
-3.634169e-002 
-3.657763e-002 
-3.716283e-002 
-3.748135e-002 
-3.786528e-002 
-3.873096e-002 
-3.956411e-002 
-4.022450e-002 
-4.108018e-002 
-4.194934e-002 
-4.254544e-002 
-4.310772e-002 
-4.371148e-002 
-4.407383e-002 
-4.428144e-002 
-4.453249e-002 
-4.469149e-002 
-4.471201e-002 
-4.474442e-002 
-4.477843e-002 
-4.474881e-002 
-4.468521e-002 
-4.462196e-002 
-4.462877e-002 
-4.464325e-002 
-4.450890e-002 
-4.439546e-002 
-4.453517e-002 
-4.457059e-002 
-4.430053e-002 
-4.426552e-002 
-4.450415e-002 
-4.438198e-002 
-4.408953e-002 
-4.424374e-002 
-4.439686e-002 
-4.408189e-002 
-4.397238e-002 
-4.428816e-002 
-4.421623e-002 
-4.387208e-002 
-4.404376e-002 
-4.427519e-002 
-4.397263e-002 
-4.381990e-002 
-4.412313e-002 
-4.409232e-002 
-4.377316e-002 
-4.387549e-002 
-4.405586e-002 
-4.380458e-002 
-4.370645e-002 
-4.393001e-002 
-4.384274e-002 
-4.359406e-002 
-4.375874e-002 
-4.389370e-002 
-4.362866e-002 
-4.356527e-002 
-4.384441e-002 
-4.376843e-002 
-4.348361e-002 
-4.364673e-002 
-4.387979e-002 
-4.365055e-002 
-4.349609e-002 
-4.378933e-002 
-4.387350e-002 
-4.359850e-002 
-4.361923e-002 
-4.389095e-002 
-4.381724e-002 
-4.362786e-002 
-4.378481e-002 
-4.392288e-002 
-4.374529e-002 
-4.370398e-002 
-4.389610e-002 
-4.386111e-002 
-4.369267e-002 
-4.380396e-002 
-4.392687e-002 
-4.377533e-002 
-4.372216e-002 
-4.389466e-002 
-4.388018e-002 
-4.372360e-002 
-4.379437e-002 
-4.389413e-002 
-4.376814e-002 
-4.374032e-002 
-4.390048e-002 
-4.384433e-002 
-4.367193e-002 
-4.381332e-002 
-4.397147e-002 
-4.376040e-002 
-4.363556e-002 
-4.390824e-002 
-4.397640e-002 
-4.367235e-002 
-4.365591e-002 
-4.394124e-002 
-4.387076e-002 
-4.360151e-002 
-4.371474e-002 
-4.390609e-002 
-4.372465e-002 
-4.359387e-002 
-4.378753e-002 
-4.383827e-002 
-4.363364e-002 
-4.364872e-002 
-4.382799e-002 
-4.374716e-002 
-4.358840e-002 
-4.370146e-002 
-4.378364e-002 
-4.361420e-002 
-4.356088e-002 
-4.370140e-002 
-4.365931e-002 
-4.351853e-002 
-4.359050e-002 
-4.366760e-002 
-4.352526e-002 
-4.348681e-002 
-4.363669e-002 
-4.359458e-002 
-4.342163e-002 
-4.352328e-002 
-4.364227e-002 
-4.347474e-002 
-4.341502e-002 
-4.360141e-002 
-4.356807e-002 
-4.339669e-002 
-4.350503e-002 
-4.360169e-002 
-4.342025e-002 
-4.339758e-002 
-4.360384e-002 
-4.352178e-002 
-4.332317e-002 
-4.348183e-002 
-4.363679e-002 
-4.341216e-002 
-4.332454e-002 
-4.354838e-002 
-4.355047e-002 
-4.332960e-002 
-4.338643e-002 
-4.354313e-002 
-4.341992e-002 
-4.331669e-002 
-4.346242e-002 
-4.350531e-002 
-4.335893e-002 
-4.336602e-002 
-4.351444e-002 
-4.346525e-002 
-4.330500e-002 
-4.337395e-002 
-4.351934e-002 
-4.342044e-002 
-4.329667e-002 
-4.341203e-002 
-4.350240e-002 
-4.339297e-002 
-4.336830e-002 
-4.349201e-002 
-4.347468e-002 
-4.338376e-002 
-4.344072e-002 
-4.349760e-002 
-4.340410e-002 
-4.341122e-002 
-4.354059e-002 
-4.350709e-002 
-4.339143e-002 
-4.347460e-002 
-4.357570e-002 
-4.347079e-002 
-4.340112e-002 
-4.350363e-002 
-4.349828e-002 
-4.337688e-002 
-4.339706e-002 
-4.345528e-002 
-4.336224e-002 
-4.332036e-002 
-4.340611e-002 
-4.338597e-002 
-4.327097e-002 
-4.333531e-002 
-4.343911e-002 
-4.333904e-002 
-4.324863e-002 
-4.336283e-002 
-4.339134e-002 
-4.326341e-002 
-4.326871e-002 
-4.337402e-002 
-4.330681e-002 
-4.321435e-002 
-4.330135e-002 
-4.333138e-002 
-4.321190e-002 
-4.322106e-002 
-4.332872e-002 
-4.326185e-002 
-4.314829e-002 
-4.322065e-002 
-4.328085e-002 
-4.317748e-002 
-4.315250e-002 
-4.323597e-002 
-4.320857e-002 
-4.315236e-002 
-4.322009e-002 
-4.324158e-002 
-4.317143e-002 
-4.318303e-002 
-4.323891e-002 
-4.322313e-002 
-4.321897e-002 
-4.324661e-002 
-4.322497e-002 
-4.321066e-002 
-4.326908e-002 
-4.325126e-002 
-4.318483e-002 
-4.322872e-002 
-4.328127e-002 
-4.320517e-002 
-4.318250e-002 
-4.324414e-002 
-4.322509e-002 
-4.315490e-002 
-4.319733e-002 
-4.324405e-002 
-4.318138e-002 
-4.315184e-002 
-4.321164e-002 
-4.321978e-002 
-4.317574e-002 
-4.318239e-002 
-4.321586e-002 
-4.320873e-002 
-4.319210e-002 
-4.320132e-002 
-4.321204e-002 
-4.321585e-002 
-4.322838e-002 
-4.322784e-002 
-4.320576e-002 
-4.319000e-002 
-4.319987e-002 
-4.319369e-002 
-4.316998e-002 
-4.316524e-002 
-4.316368e-002 
-4.315315e-002 
-4.313568e-002 
-4.311263e-002 
-4.310891e-002 
-4.310891e-002 
1.110223e-016 
-4.727205e-002 
-4.636665e-002 
-4.557355e-002 
-4.513122e-002 
-4.636024e-002 
-4.635906e-002 
-4.558596e-002 
-4.564188e-002 
-4.637347e-002 
-4.606533e-002 
-4.545930e-002 
-4.572925e-002 
-4.667192e-002 
-4.574565e-002 
-4.506841e-002 
-4.648534e-002 
-4.636071e-002 
-4.521311e-002 
-4.582128e-002 
-4.640850e-002 
-4.571191e-002 
-4.555287e-002 
-4.607667e-002 
-4.606615e-002 
-4.573911e-002 
-4.570002e-002 
-4.594963e-002 
-4.610845e-002 
-4.580339e-002 
-4.552410e-002 
-4.603054e-002 
-4.624326e-002 
-4.545466e-002 
-4.557071e-002 
-4.644141e-002 
-4.580163e-002 
-4.519202e-002 
-4.626084e-002 
-4.634580e-002 
-4.517876e-002 
-4.570444e-002 
-4.663298e-002 
-4.567559e-002 
-4.522821e-002 
-4.637587e-002 
-4.617050e-002 
-4.525452e-002 
-4.584083e-002 
-4.632296e-002 
-4.555103e-002 
-4.569988e-002 
-4.603837e-002 
-4.580607e-002 
-4.593875e-002 
-4.570194e-002 
-4.577863e-002 
-4.619412e-002 
-4.569202e-002 
-4.546278e-002 
-4.626586e-002 
-4.601243e-002 
-4.511405e-002 
-4.596277e-002 
-4.647879e-002 
-4.523040e-002 
-4.531346e-002 
-4.661862e-002 
-4.569541e-002 
-4.499073e-002 
-4.623435e-002 
-4.607524e-002 
-4.509595e-002 
-4.567161e-002 
-4.616448e-002 
-4.543665e-002 
-4.534679e-002 
-4.577408e-002 
-4.583230e-002 
-4.541625e-002 
-4.536252e-002 
-4.575287e-002 
-4.569801e-002 
-4.531215e-002 
-4.535211e-002 
-4.572639e-002 
-4.554585e-002 
-4.517817e-002 
-4.532940e-002 
-4.565897e-002 
-4.530012e-002 
-4.502243e-002 
-4.554728e-002 
-4.544353e-002 
-4.485609e-002 
-4.515330e-002 
-4.550063e-002 
-4.483495e-002 
-4.490173e-002 
-4.555956e-002 
-4.483153e-002 
-4.416299e-002 
-4.509407e-002 
-4.543961e-002 
-4.419541e-002 
-4.401103e-002 
-4.528343e-002 
-4.497485e-002 
-4.360064e-002 
-4.420211e-002 
-4.526037e-002 
-4.409966e-002 
-4.323482e-002 
-4.465304e-002 
-4.469558e-002 
-4.329735e-002 
-4.388100e-002 
-4.453664e-002 
-4.367387e-002 
-4.334260e-002 
-4.378924e-002 
-4.425543e-002 
-4.300221e-002 
-4.305387e-002 
-4.447578e-002 
-4.293057e-002 
-4.266617e-002 
-4.376791e-002 
-4.335628e-002 
-4.216887e-002 
-4.290653e-002 
-4.367100e-002 
-4.233649e-002 
-4.195251e-002 
-4.299525e-002 
-4.286163e-002 
-4.154917e-002 
-4.219159e-002 
-4.289085e-002 
-4.193374e-002 
-4.132279e-002 
-4.226406e-002 
-4.209213e-002 
-4.119561e-002 
-4.158130e-002 
-4.220781e-002 
-4.123521e-002 
-4.085889e-002 
-4.182405e-002 
-4.167848e-002 
-4.074940e-002 
-4.091846e-002 
-4.147505e-002 
-4.099394e-002 
-4.059559e-002 
-4.102990e-002 
-4.092291e-002 
-4.055057e-002 
-4.080897e-002 
-4.067305e-002 
-4.045028e-002 
-4.049304e-002 
-4.062302e-002 
-4.037697e-002 
-4.020504e-002 
-4.036385e-002 
-4.043160e-002 
-4.022174e-002 
-4.018808e-002 
-4.049384e-002 
-4.052820e-002 
-4.026210e-002 
-4.036677e-002 
-4.055465e-002 
-4.030981e-002 
-4.017074e-002 
-4.051557e-002 
-4.069543e-002 
-4.054936e-002 
-4.060596e-002 
-4.080457e-002 
-4.071286e-002 
-4.057242e-002 
-4.073939e-002 
-4.081127e-002 
-4.064470e-002 
-4.063678e-002 
-4.079371e-002 
-4.074390e-002 
-4.060033e-002 
-4.070946e-002 
-4.089459e-002 
-4.079193e-002 
-4.062471e-002 
-4.075235e-002 
-4.089033e-002 
-4.063283e-002 
-4.047046e-002 
-4.074964e-002 
-4.078333e-002 
-4.043828e-002 
-4.051197e-002 
-4.081749e-002 
-4.060519e-002 
-4.038009e-002 
-4.069438e-002 
-4.080124e-002 
-4.042844e-002 
-4.041936e-002 
-4.075249e-002 
-4.053734e-002 
-4.015069e-002 
-4.045749e-002 
-4.068332e-002 
-4.017931e-002 
-4.000015e-002 
-4.036365e-002 
-4.036080e-002 
-3.992309e-002 
-4.012297e-002 
-4.060591e-002 
-4.031938e-002 
-3.995783e-002 
-4.034427e-002 
-4.022921e-002 
-3.956051e-002 
-3.968289e-002 
-4.011876e-002 
-3.969625e-002 
-3.930912e-002 
-3.982389e-002 
-3.999762e-002 
-3.945390e-002 
-3.950487e-002 
-3.998035e-002 
-3.956468e-002 
-3.892499e-002 
-3.901969e-002 
-3.877763e-002 
-3.786262e-002 
-3.739650e-002 
-3.725669e-002 
-3.655866e-002 
-3.612912e-002 
-3.649184e-002 
-3.660499e-002 
-3.632411e-002 
-3.677100e-002 
-3.768082e-002 
-3.802586e-002 
-3.843379e-002 
-3.951145e-002 
-4.039918e-002 
-4.084716e-002 
-4.165640e-002 
-4.265046e-002 
-4.310474e-002 
-4.340343e-002 
-4.401730e-002 
-4.441995e-002 
-4.438826e-002 
-4.449208e-002 
-4.478210e-002 
-4.477290e-002 
-4.456566e-002 
-4.462489e-002 
-4.480274e-002 
-4.465301e-002 
-4.442295e-002 
-4.454796e-002 
-4.467312e-002 
-4.440481e-002 
-4.427308e-002 
-4.453540e-002 
-4.449714e-002 
-4.414636e-002 
-4.425535e-002 
-4.456306e-002 
-4.423623e-002 
-4.394795e-002 
-4.434036e-002 
-4.441438e-002 
-4.386561e-002 
-4.392759e-002 
-4.440376e-002 
-4.408862e-002 
-4.366139e-002 
-4.410439e-002 
-4.431603e-002 
-4.373344e-002 
-4.371616e-002 
-4.426965e-002 
-4.400897e-002 
-4.350374e-002 
-4.391465e-002 
-4.421062e-002 
-4.364310e-002 
-4.350007e-002 
-4.403561e-002 
-4.391692e-002 
-4.342239e-002 
-4.368586e-002 
-4.402969e-002 
-4.362411e-002 
-4.343193e-002 
-4.385180e-002 
-4.384814e-002 
-4.344929e-002 
-4.361535e-002 
-4.395975e-002 
-4.367194e-002 
-4.345187e-002 
-4.383168e-002 
-4.394716e-002 
-4.352557e-002 
-4.358080e-002 
-4.403625e-002 
-4.387283e-002 
-4.348634e-002 
-4.380581e-002 
-4.412269e-002 
-4.370904e-002 
-4.351849e-002 
-4.399007e-002 
-4.402752e-002 
-4.357428e-002 
-4.368135e-002 
-4.407599e-002 
-4.382159e-002 
-4.353158e-002 
-4.386000e-002 
-4.400435e-002 
-4.361588e-002 
-4.361011e-002 
-4.396178e-002 
-4.384219e-002 
-4.355550e-002 
-4.375792e-002 
-4.394606e-002 
-4.370593e-002 
-4.361795e-002 
-4.385422e-002 
-4.386073e-002 
-4.366959e-002 
-4.372937e-002 
-4.386603e-002 
-4.376123e-002 
-4.366451e-002 
-4.377260e-002 
-4.381461e-002 
-4.368794e-002 
-4.367807e-002 
-4.378680e-002 
-4.375236e-002 
-4.363393e-002 
-4.368158e-002 
-4.378188e-002 
-4.368927e-002 
-4.359373e-002 
-4.369286e-002 
-4.372007e-002 
-4.357901e-002 
-4.355481e-002 
-4.365218e-002 
-4.359113e-002 
-4.349385e-002 
-4.358048e-002 
-4.362161e-002 
-4.349465e-002 
-4.351744e-002 
-4.363589e-002 
-4.355691e-002 
-4.345501e-002 
-4.355830e-002 
-4.358797e-002 
-4.346960e-002 
-4.347890e-002 
-4.355923e-002 
-4.347699e-002 
-4.344836e-002 
-4.354095e-002 
-4.350462e-002 
-4.339407e-002 
-4.346767e-002 
-4.351208e-002 
-4.338696e-002 
-4.338925e-002 
-4.352171e-002 
-4.345761e-002 
-4.332638e-002 
-4.343756e-002 
-4.353939e-002 
-4.340025e-002 
-4.331287e-002 
-4.345032e-002 
-4.350027e-002 
-4.337283e-002 
-4.332616e-002 
-4.342737e-002 
-4.345966e-002 
-4.336927e-002 
-4.336721e-002 
-4.344185e-002 
-4.343047e-002 
-4.337602e-002 
-4.343745e-002 
-4.347386e-002 
-4.337937e-002 
-4.336233e-002 
-4.348516e-002 
-4.347927e-002 
-4.332767e-002 
-4.333930e-002 
-4.348485e-002 
-4.345565e-002 
-4.334075e-002 
-4.337924e-002 
-4.346083e-002 
-4.344630e-002 
-4.340933e-002 
-4.339175e-002 
-4.339938e-002 
-4.343973e-002 
-4.345082e-002 
-4.337507e-002 
-4.334638e-002 
-4.343146e-002 
-4.344712e-002 
-4.337026e-002 
-4.337884e-002 
-4.341746e-002 
-4.337867e-002 
-4.335873e-002 
-4.338324e-002 
-4.334387e-002 
-4.329042e-002 
-4.333375e-002 
-4.336675e-002 
-4.328412e-002 
-4.326572e-002 
-4.335009e-002 
-4.333717e-002 
-4.325760e-002 
-4.328545e-002 
-4.332178e-002 
-4.325834e-002 
-4.322337e-002 
-4.327904e-002 
-4.327437e-002 
-4.320885e-002 
-4.324581e-002 
-4.329010e-002 
-4.322041e-002 
-4.322027e-002 
-4.329710e-002 
-4.325431e-002 
-4.318922e-002 
-4.326065e-002 
-4.328507e-002 
-4.316662e-002 
-4.316002e-002 
-4.328738e-002 
-4.322847e-002 
-4.310763e-002 
-4.322100e-002 
-4.331058e-002 
-4.317089e-002 
-4.314551e-002 
-4.328720e-002 
-4.327559e-002 
-4.314673e-002 
-4.321426e-002 
-4.331310e-002 
-4.320900e-002 
-4.315466e-002 
-4.326642e-002 
-4.325708e-002 
-4.314523e-002 
-4.318612e-002 
-4.327724e-002 
-4.320597e-002 
-4.312646e-002 
-4.320673e-002 
-4.325138e-002 
-4.315898e-002 
-4.314004e-002 
-4.322377e-002 
-4.321428e-002 
-4.311693e-002 
-4.314407e-002 
-4.322894e-002 
-4.319318e-002 
-4.312933e-002 
-4.319272e-002 
-4.325226e-002 
-4.319141e-002 
-4.315174e-002 
-4.321039e-002 
-4.322870e-002 
-4.317478e-002 
-4.318397e-002 
-4.321973e-002 
-4.317725e-002 
-4.313598e-002 
-4.318306e-002 
-4.319330e-002 
-4.311258e-002 
-4.310006e-002 
-4.316314e-002 
-4.313768e-002 
-4.306470e-002 
-4.306470e-002 
1.110223e-016 
-4.502958e-002 
-4.835764e-002 
-4.607323e-002 
-4.419313e-002 
-4.621229e-002 
-4.739099e-002 
-4.557514e-002 
-4.463255e-002 
-4.663039e-002 
-4.690512e-002 
-4.507086e-002 
-4.543425e-002 
-4.681782e-002 
-4.597905e-002 
-4.517092e-002 
-4.619554e-002 
-4.652429e-002 
-4.533233e-002 
-4.559307e-002 
-4.665931e-002 
-4.582263e-002 
-4.525716e-002 
-4.634577e-002 
-4.619958e-002 
-4.529478e-002 
-4.599597e-002 
-4.646014e-002 
-4.543612e-002 
-4.557928e-002 
-4.654182e-002 
-4.585373e-002 
-4.523851e-002 
-4.628852e-002 
-4.629129e-002 
-4.519951e-002 
-4.579057e-002 
-4.660998e-002 
-4.553769e-002 
-4.522778e-002 
-4.650931e-002 
-4.626483e-002 
-4.496583e-002 
-4.586922e-002 
-4.681240e-002 
-4.538078e-002 
-4.506153e-002 
-4.676749e-002 
-4.610050e-002 
-4.470049e-002 
-4.624305e-002 
-4.670594e-002 
-4.489110e-002 
-4.555020e-002 
-4.683459e-002 
-4.555642e-002 
-4.505757e-002 
-4.635650e-002 
-4.630032e-002 
-4.514693e-002 
-4.549791e-002 
-4.652797e-002 
-4.579777e-002 
-4.496312e-002 
-4.604235e-002 
-4.642173e-002 
-4.507979e-002 
-4.543124e-002 
-4.655496e-002 
-4.551743e-002 
-4.501470e-002 
-4.623720e-002 
-4.604146e-002 
-4.499277e-002 
-4.563498e-002 
-4.615374e-002 
-4.538603e-002 
-4.526011e-002 
-4.588848e-002 
-4.566219e-002 
-4.525000e-002 
-4.562495e-002 
-4.568003e-002 
-4.533382e-002 
-4.545318e-002 
-4.559454e-002 
-4.538518e-002 
-4.538953e-002 
-4.538941e-002 
-4.531401e-002 
-4.551145e-002 
-4.529542e-002 
-4.496976e-002 
-4.541253e-002 
-4.552638e-002 
-4.473260e-002 
-4.489657e-002 
-4.576540e-002 
-4.500058e-002 
-4.412382e-002 
-4.525280e-002 
-4.565565e-002 
-4.421341e-002 
-4.414088e-002 
-4.532632e-002 
-4.494278e-002 
-4.398662e-002 
-4.449157e-002 
-4.486326e-002 
-4.419891e-002 
-4.415383e-002 
-4.452730e-002 
-4.409613e-002 
-4.397132e-002 
-4.442161e-002 
-4.407078e-002 
-4.355524e-002 
-4.403668e-002 
-4.429534e-002 
-4.358761e-002 
-4.322221e-002 
-4.393830e-002 
-4.411851e-002 
-4.277565e-002 
-4.314326e-002 
-4.425272e-002 
-4.299199e-002 
-4.240306e-002 
-4.356079e-002 
-4.358990e-002 
-4.217533e-002 
-4.255721e-002 
-4.340636e-002 
-4.254700e-002 
-4.191345e-002 
-4.279455e-002 
-4.276583e-002 
-4.174815e-002 
-4.208902e-002 
-4.262009e-002 
-4.176751e-002 
-4.143174e-002 
-4.227982e-002 
-4.193899e-002 
-4.101692e-002 
-4.156948e-002 
-4.211970e-002 
-4.111100e-002 
-4.093418e-002 
-4.176043e-002 
-4.137775e-002 
-4.054834e-002 
-4.115196e-002 
-4.149260e-002 
-4.058173e-002 
-4.044889e-002 
-4.130232e-002 
-4.086735e-002 
-4.013347e-002 
-4.066678e-002 
-4.106213e-002 
-4.032639e-002 
-4.000238e-002 
-4.065910e-002 
-4.069611e-002 
-3.999032e-002 
-4.001925e-002 
-4.067904e-002 
-4.046590e-002 
-3.994469e-002 
-4.039005e-002 
-4.080096e-002 
-4.025505e-002 
-4.001671e-002 
-4.053093e-002 
-4.053240e-002 
-4.010764e-002 
-4.045988e-002 