# vtk DataFile Version 2.0
2D-ADE data file 
ASCII
DATASET RECTILINEAR_GRID
DIMENSIONS 512 128 1
X_COORDINATES 512 int
0 1 2 3 4 5 6 7 8 9 10 11 12 13 14 15 16 17 18 19 20 21 22 23 24 25 26 27 28 29 30 31 32 33 34 35 36 37 38 39 40 41 42 43 44 45 46 47 48 49 50 51 52 53 54 55 56 57 58 59 60 61 62 63 64 65 66 67 68 69 70 71 72 73 74 75 76 77 78 79 80 81 82 83 84 85 86 87 88 89 90 91 92 93 94 95 96 97 98 99 100 101 102 103 104 105 106 107 108 109 110 111 112 113 114 115 116 117 118 119 120 121 122 123 124 125 126 127 128 129 130 131 132 133 134 135 136 137 138 139 140 141 142 143 144 145 146 147 148 149 150 151 152 153 154 155 156 157 158 159 160 161 162 163 164 165 166 167 168 169 170 171 172 173 174 175 176 177 178 179 180 181 182 183 184 185 186 187 188 189 190 191 192 193 194 195 196 197 198 199 200 201 202 203 204 205 206 207 208 209 210 211 212 213 214 215 216 217 218 219 220 221 222 223 224 225 226 227 228 229 230 231 232 233 234 235 236 237 238 239 240 241 242 243 244 245 246 247 248 249 250 251 252 253 254 255 256 257 258 259 260 261 262 263 264 265 266 267 268 269 270 271 272 273 274 275 276 277 278 279 280 281 282 283 284 285 286 287 288 289 290 291 292 293 294 295 296 297 298 299 300 301 302 303 304 305 306 307 308 309 310 311 312 313 314 315 316 317 318 319 320 321 322 323 324 325 326 327 328 329 330 331 332 333 334 335 336 337 338 339 340 341 342 343 344 345 346 347 348 349 350 351 352 353 354 355 356 357 358 359 360 361 362 363 364 365 366 367 368 369 370 371 372 373 374 375 376 377 378 379 380 381 382 383 384 385 386 387 388 389 390 391 392 393 394 395 396 397 398 399 400 401 402 403 404 405 406 407 408 409 410 411 412 413 414 415 416 417 418 419 420 421 422 423 424 425 426 427 428 429 430 431 432 433 434 435 436 437 438 439 440 441 442 443 444 445 446 447 448 449 450 451 452 453 454 455 456 457 458 459 460 461 462 463 464 465 466 467 468 469 470 471 472 473 474 475 476 477 478 479 480 481 482 483 484 485 486 487 488 489 490 491 492 493 494 495 496 497 498 499 500 501 502 503 504 505 506 507 508 509 510 511 
Y_COORDINATES 128 int
0 1 2 3 4 5 6 7 8 9 10 11 12 13 14 15 16 17 18 19 20 21 22 23 24 25 26 27 28 29 30 31 32 33 34 35 36 37 38 39 40 41 42 43 44 45 46 47 48 49 50 51 52 53 54 55 56 57 58 59 60 61 62 63 64 65 66 67 68 69 70 71 72 73 74 75 76 77 78 79 80 81 82 83 84 85 86 87 88 89 90 91 92 93 94 95 96 97 98 99 100 101 102 103 104 105 106 107 108 109 110 111 112 113 114 115 116 117 118 119 120 121 122 123 124 125 126 127 
Z_COORDINATES 1 int
0
POINT_DATA 65536 
SCALARS density double 1
LOOKUP_TABLE default
-2.061004e-002 
-3.049015e-002 
-2.700233e-002 
-2.654911e-002 
-2.673866e-002 
-2.664031e-002 
-2.669573e-002 
-2.672667e-002 
-2.671599e-002 
-2.657921e-002 
-2.674946e-002 
-2.672362e-002 
-2.666583e-002 
-2.661370e-002 
-2.670874e-002 
-2.676807e-002 
-2.659310e-002 
-2.662131e-002 
-2.679274e-002 
-2.663167e-002 
-2.659869e-002 
-2.673069e-002 
-2.667843e-002 
-2.661495e-002 
-2.668483e-002 
-2.666160e-002 
-2.664863e-002 
-2.669212e-002 
-2.663180e-002 
-2.662293e-002 
-2.673434e-002 
-2.665396e-002 
-2.655868e-002 
-2.673652e-002 
-2.672385e-002 
-2.651833e-002 
-2.666656e-002 
-2.680310e-002 
-2.656391e-002 
-2.653696e-002 
-2.681360e-002 
-2.669053e-002 
-2.646774e-002 
-2.669023e-002 
-2.683767e-002 
-2.648963e-002 
-2.655176e-002 
-2.685810e-002 
-2.663579e-002 
-2.640770e-002 
-2.683423e-002 
-2.672527e-002 
-2.641145e-002 
-2.674587e-002 
-2.673691e-002 
-2.649546e-002 
-2.666493e-002 
-2.671043e-002 
-2.655461e-002 
-2.664707e-002 
-2.665269e-002 
-2.659645e-002 
-2.664196e-002 
-2.662858e-002 
-2.659757e-002 
-2.660056e-002 
-2.668306e-002 
-2.653909e-002 
-2.657733e-002 
-2.668050e-002 
-2.656524e-002 
-2.651078e-002 
-2.665010e-002 
-2.660722e-002 
-2.649630e-002 
-2.656375e-002 
-2.661456e-002 
-2.656079e-002 
-2.647119e-002 
-2.658118e-002 
-2.661168e-002 
-2.645052e-002 
-2.648492e-002 
-2.662360e-002 
-2.648213e-002 
-2.643451e-002 
-2.655841e-002 
-2.654709e-002 
-2.640767e-002 
-2.643650e-002 
-2.653875e-002 
-2.643298e-002 
-2.638624e-002 
-2.647548e-002 
-2.649347e-002 
-2.635124e-002 
-2.633184e-002 
-2.646811e-002 
-2.642604e-002 
-2.627327e-002 
-2.635793e-002 
-2.648742e-002 
-2.629981e-002 
-2.617541e-002 
-2.639962e-002 
-2.645910e-002 
-2.616104e-002 
-2.615989e-002 
-2.642167e-002 
-2.634493e-002 
-2.609634e-002 
-2.619560e-002 
-2.635724e-002 
-2.620039e-002 
-2.605988e-002 
-2.625465e-002 
-2.626635e-002 
-2.612351e-002 
-2.603855e-002 
-2.622847e-002 
-2.629565e-002 
-2.582852e-002 
-2.625707e-002 
-2.626662e-002 
-2.589129e-002 
-2.612654e-002 
-2.621136e-002 
-2.602601e-002 
-2.603539e-002 
-2.621513e-002 
-2.604684e-002 
-2.601386e-002 
-2.617740e-002 
-2.615453e-002 
-2.594149e-002 
-2.611414e-002 
-2.625036e-002 
-2.597629e-002 
-2.599862e-002 
-2.627443e-002 
-2.611624e-002 
-2.592372e-002 
-2.618869e-002 
-2.623196e-002 
-2.597510e-002 
-2.607732e-002 
-2.625088e-002 
-2.615079e-002 
-2.603431e-002 
-2.615476e-002 
-2.628979e-002 
-2.609624e-002 
-2.606220e-002 
-2.629793e-002 
-2.620802e-002 
-2.606309e-002 
-2.622396e-002 
-2.626807e-002 
-2.614182e-002 
-2.616165e-002 
-2.625615e-002 
-2.622408e-002 
-2.616843e-002 
-2.622539e-002 
-2.626123e-002 
-2.620856e-002 
-2.621621e-002 
-2.625200e-002 
-2.624238e-002 
-2.623973e-002 
-2.623596e-002 
-2.624872e-002 
-2.627683e-002 
-2.624323e-002 
-2.623540e-002 
-2.629302e-002 
-2.628132e-002 
-2.623561e-002 
-2.628353e-002 
-2.632449e-002 
-2.627634e-002 
-2.627866e-002 
-2.635448e-002 
-2.634630e-002 
-2.630121e-002 
-2.636668e-002 
-2.642568e-002 
-2.636728e-002 
-2.637395e-002 
-2.647725e-002 
-2.647646e-002 
-2.640334e-002 
-2.647991e-002 
-2.657282e-002 
-2.650098e-002 
-2.645623e-002 
-2.658750e-002 
-2.661398e-002 
-2.650190e-002 
-2.653236e-002 
-2.666032e-002 
-2.659120e-002 
-2.651156e-002 
-2.662878e-002 
-2.667501e-002 
-2.655841e-002 
-2.657302e-002 
-2.668798e-002 
-2.663521e-002 
-2.655746e-002 
-2.665347e-002 
-2.669457e-002 
-2.659492e-002 
-2.661330e-002 
-2.671885e-002 
-2.666098e-002 
-2.658226e-002 
-2.669633e-002 
-2.674411e-002 
-2.662465e-002 
-2.662149e-002 
-2.676803e-002 
-2.673556e-002 
-2.660613e-002 
-2.669164e-002 
-2.681508e-002 
-2.670603e-002 
-2.662305e-002 
-2.677658e-002 
-2.682399e-002 
-2.666389e-002 
-2.668139e-002 
-2.684923e-002 
-2.677613e-002 
-2.664345e-002 
-2.677162e-002 
-2.686032e-002 
-2.670019e-002 
-2.667440e-002 
-2.683787e-002 
-2.679208e-002 
-2.664924e-002 
-2.674477e-002 
-2.682060e-002 
-2.668908e-002 
-2.666325e-002 
-2.677066e-002 
-2.672506e-002 
-2.663616e-002 
-2.669211e-002 
-2.672515e-002 
-2.664821e-002 
-2.664668e-002 
-2.670228e-002 
-2.666915e-002 
-2.662813e-002 
-2.666166e-002 
-2.666731e-002 
-2.662204e-002 
-2.661465e-002 
-2.663812e-002 
-2.662197e-002 
-2.660433e-002 
-2.661341e-002 
-2.662280e-002 
-2.661750e-002 
-2.660698e-002 
-2.660965e-002 
-2.661535e-002 
-2.656851e-002 
-2.654462e-002 
-2.654308e-002 
-2.650793e-002 
-2.645738e-002 
-2.646213e-002 
-2.646821e-002 
-2.642403e-002 
-2.641036e-002 
-2.643320e-002 
-2.639867e-002 
-2.634834e-002 
-2.634651e-002 
-2.633690e-002 
-2.628054e-002 
-2.624621e-002 
-2.625018e-002 
-2.622066e-002 
-2.619115e-002 
-2.620006e-002 
-2.619761e-002 
-2.618700e-002 
-2.619708e-002 
-2.620823e-002 
-2.620612e-002 
-2.619235e-002 
-2.619307e-002 
-2.619876e-002 
-2.618477e-002 
-2.616746e-002 
-2.616451e-002 
-2.614958e-002 
-2.610521e-002 
-2.606908e-002 
-2.604115e-002 
-2.598080e-002 
-2.591213e-002 
-2.586289e-002 
-2.580241e-002 
-2.571846e-002 
-2.565922e-002 
-2.561120e-002 
-2.554223e-002 
-2.548503e-002 
-2.545644e-002 
-2.542287e-002 
-2.539165e-002 
-2.538213e-002 
-2.538236e-002 
-2.538873e-002 
-2.540369e-002 
-2.542762e-002 
-2.546449e-002 
-2.550805e-002 
-2.554518e-002 
-2.559853e-002 
-2.566497e-002 
-2.571634e-002 
-2.576916e-002 
-2.584450e-002 
-2.590693e-002 
-2.595176e-002 
-2.601678e-002 
-2.608656e-002 
-2.612809e-002 
-2.617185e-002 
-2.623694e-002 
-2.628430e-002 
-2.630663e-002 
-2.635122e-002 
-2.640203e-002 
-2.642119e-002 
-2.643716e-002 
-2.648051e-002 
-2.650473e-002 
-2.650610e-002 
-2.652552e-002 
-2.655506e-002 
-2.655644e-002 
-2.655646e-002 
-2.657517e-002 
-2.658812e-002 
-2.658179e-002 
-2.658425e-002 
-2.659727e-002 
-2.659897e-002 
-2.658970e-002 
-2.659259e-002 
-2.659819e-002 
-2.659206e-002 
-2.658328e-002 
-2.658570e-002 
-2.658416e-002 
-2.657298e-002 
-2.657049e-002 
-2.657169e-002 
-2.656116e-002 
-2.655419e-002 
-2.655907e-002 
-2.655011e-002 
-2.653516e-002 
-2.654097e-002 
-2.654411e-002 
-2.652145e-002 
-2.651474e-002 
-2.653387e-002 
-2.652351e-002 
-2.649670e-002 
-2.650857e-002 
-2.652579e-002 
-2.649857e-002 
-2.648056e-002 
-2.650709e-002 
-2.651061e-002 
-2.647583e-002 
-2.647653e-002 
-2.650654e-002 
-2.649160e-002 
-2.646159e-002 
-2.647896e-002 
-2.650180e-002 
-2.647699e-002 
-2.645710e-002 
-2.648336e-002 
-2.649342e-002 
-2.646300e-002 
-2.645569e-002 
-2.648529e-002 
-2.648075e-002 
-2.644973e-002 
-2.645728e-002 
-2.648336e-002 
-2.646340e-002 
-2.643903e-002 
-2.645804e-002 
-2.646824e-002 
-2.644186e-002 
-2.643752e-002 
-2.645529e-002 
-2.644571e-002 
-2.643438e-002 
-2.644324e-002 
-2.644401e-002 
-2.642943e-002 
-2.643299e-002 
-2.644028e-002 
-2.643089e-002 
-2.642177e-002 
-2.642906e-002 
-2.642788e-002 
-2.642065e-002 
-2.642014e-002 
-2.642201e-002 
-2.641672e-002 
-2.641542e-002 
-2.641968e-002 
-2.641819e-002 
-2.640949e-002 
-2.641194e-002 
-2.642075e-002 
-2.641602e-002 
-2.640691e-002 
-2.641575e-002 
-2.642100e-002 
-2.641091e-002 
-2.641052e-002 
-2.642035e-002 
-2.641230e-002 
-2.640661e-002 
-2.641874e-002 
-2.641762e-002 
-2.640433e-002 
-2.641112e-002 
-2.641988e-002 
-2.640841e-002 
-2.640558e-002 
-2.641385e-002 
-2.641059e-002 
-2.640450e-002 
-2.641090e-002 
-2.641206e-002 
-2.640240e-002 
-2.640511e-002 
-2.641107e-002 
-2.640674e-002 
-2.640256e-002 
-2.640386e-002 
-2.640721e-002 
-2.640451e-002 
-2.640421e-002 
-2.640229e-002 
-2.640399e-002 
-2.640180e-002 
-2.640069e-002 
-2.640235e-002 
-2.639827e-002 
-2.639348e-002 
-2.639636e-002 
-2.639811e-002 
-2.639082e-002 
-2.638553e-002 
-2.639479e-002 
-2.639231e-002 
-2.638187e-002 
-2.638426e-002 
-2.639063e-002 
-2.638064e-002 
-2.637512e-002 
-2.638414e-002 
-2.638227e-002 
-2.637054e-002 
-2.637339e-002 
-2.637955e-002 
-2.637276e-002 
-2.636783e-002 
-2.637445e-002 
-2.637548e-002 
-2.636728e-002 
-2.636937e-002 
-2.637543e-002 
-2.637164e-002 
-2.636661e-002 
-2.637137e-002 
-2.637345e-002 
-2.636857e-002 
-2.636578e-002 
-2.636960e-002 
-2.636876e-002 
-2.636386e-002 
-2.636396e-002 
-2.636586e-002 
-2.636197e-002 
-2.636009e-002 
-2.636220e-002 
-2.635992e-002 
-2.635852e-002 
-2.636028e-002 
-2.635978e-002 
-2.635736e-002 
-2.636175e-002 
-2.636283e-002 
-2.636606e-002 
-2.061532e-002 
1.110223e-016 
-4.740911e-002 
-4.122531e-002 
-4.443845e-002 
-4.778751e-002 
-4.523087e-002 
-4.373422e-002 
-4.582940e-002 
-4.639121e-002 
-4.444041e-002 
-4.460392e-002 
-4.627641e-002 
-4.559067e-002 
-4.420202e-002 
-4.532597e-002 
-4.614318e-002 
-4.486703e-002 
-4.448417e-002 
-4.584639e-002 
-4.558612e-002 
-4.434687e-002 
-4.522314e-002 
-4.590268e-002 
-4.466305e-002 
-4.475095e-002 
-4.581879e-002 
-4.506929e-002 
-4.452707e-002 
-4.556960e-002 
-4.537315e-002 
-4.450654e-002 
-4.531976e-002 
-4.564768e-002 
-4.452367e-002 
-4.489784e-002 
-4.586914e-002 
-4.496191e-002 
-4.439212e-002 
-4.554162e-002 
-4.560735e-002 
-4.443486e-002 
-4.485844e-002 
-4.583461e-002 
-4.496875e-002 
-4.424073e-002 
-4.560888e-002 
-4.572163e-002 
-4.408651e-002 
-4.481120e-002 
-4.627498e-002 
-4.445880e-002 
-4.402800e-002 
-4.636406e-002 
-4.508934e-002 
-4.361610e-002 
-4.578389e-002 
-4.584449e-002 
-4.377892e-002 
-4.477412e-002 
-4.607346e-002 
-4.466832e-002 
-4.402959e-002 
-4.547624e-002 
-4.552586e-002 
-4.409073e-002 
-4.465207e-002 
-4.557997e-002 
-4.471329e-002 
-4.411909e-002 
-4.508928e-002 
-4.520486e-002 
-4.409380e-002 
-4.448965e-002 
-4.526345e-002 
-4.441028e-002 
-4.405281e-002 
-4.494090e-002 
-4.468908e-002 
-4.409511e-002 
-4.445512e-002 
-4.470263e-002 
-4.429205e-002 
-4.405891e-002 
-4.430428e-002 
-4.446684e-002 
-4.410088e-002 
-4.404613e-002 
-4.437645e-002 
-4.416746e-002 
-4.375921e-002 
-4.371736e-002 
-4.396722e-002 
-4.394779e-002 
-4.380495e-002 
-4.387264e-002 
-4.378031e-002 
-4.328152e-002 
-4.300708e-002 
-4.357703e-002 
-4.416375e-002 
-4.359733e-002 
-4.250680e-002 
-4.268388e-002 
-4.378621e-002 
-4.376188e-002 
-4.251359e-002 
-4.214303e-002 
-4.317904e-002 
-4.352280e-002 
-4.245990e-002 
-4.207565e-002 
-4.295215e-002 
-4.295736e-002 
-4.183603e-002 
-4.187894e-002 
-4.289912e-002 
-4.273732e-002 
-4.158248e-002 
-4.183500e-002 
-4.241948e-002 
-4.208241e-002 
-4.149701e-002 
-4.190075e-002 
-4.288237e-002 
-4.111673e-002 
-4.055372e-002 
-4.302988e-002 
-4.266298e-002 
-4.009041e-002 
-4.137062e-002 
-4.345001e-002 
-4.140684e-002 
-4.024311e-002 
-4.256142e-002 
-4.280889e-002 
-4.046146e-002 
-4.120052e-002 
-4.315098e-002 
-4.161462e-002 
-4.050445e-002 
-4.244101e-002 
-4.268782e-002 
-4.087194e-002 
-4.138020e-002 
-4.276085e-002 
-4.187192e-002 
-4.120564e-002 
-4.230766e-002 
-4.255330e-002 
-4.159578e-002 
-4.186747e-002 
-4.270061e-002 
-4.208372e-002 
-4.174281e-002 
-4.261921e-002 
-4.247603e-002 
-4.181320e-002 
-4.242396e-002 
-4.276812e-002 
-4.203123e-002 
-4.212522e-002 
-4.290048e-002 
-4.251232e-002 
-4.198512e-002 
-4.269744e-002 
-4.296454e-002 
-4.220509e-002 
-4.232865e-002 
-4.301813e-002 
-4.268329e-002 
-4.224956e-002 
-4.274693e-002 
-4.301424e-002 
-4.252145e-002 
-4.247662e-002 
-4.299948e-002 
-4.292863e-002 
-4.251511e-002 
-4.279207e-002 
-4.318604e-002 
-4.288426e-002 
-4.274289e-002 
-4.322223e-002 
-4.335780e-002 
-4.304320e-002 
-4.320466e-002 
-4.364610e-002 
-4.358948e-002 
-4.344855e-002 
-4.375327e-002 
-4.401997e-002 
-4.394940e-002 
-4.396864e-002 
-4.422176e-002 
-4.433995e-002 
-4.428561e-002 
-4.438648e-002 
-4.460414e-002 
-4.457150e-002 
-4.447213e-002 
-4.466385e-002 
-4.482415e-002 
-4.466168e-002 
-4.463817e-002 
-4.492449e-002 
-4.494827e-002 
-4.472154e-002 
-4.484840e-002 
-4.507166e-002 
-4.487700e-002 
-4.479311e-002 
-4.515746e-002 
-4.515226e-002 
-4.478602e-002 
-4.504887e-002 
-4.545871e-002 
-4.502147e-002 
-4.475664e-002 
-4.545803e-002 
-4.563700e-002 
-4.490936e-002 
-4.498398e-002 
-4.577637e-002 
-4.555733e-002 
-4.493740e-002 
-4.542726e-002 
-4.594230e-002 
-4.537267e-002 
-4.515553e-002 
-4.587424e-002 
-4.590363e-002 
-4.524373e-002 
-4.550644e-002 
-4.612425e-002 
-4.568552e-002 
-4.526540e-002 
-4.586723e-002 
-4.608693e-002 
-4.541563e-002 
-4.540861e-002 
-4.603532e-002 
-4.578868e-002 
-4.523431e-002 
-4.560403e-002 
-4.587551e-002 
-4.532638e-002 
-4.519863e-002 
-4.562948e-002 
-4.542604e-002 
-4.501682e-002 
-4.527931e-002 
-4.542948e-002 
-4.506360e-002 
-4.506145e-002 
-4.532669e-002 
-4.512250e-002 
-4.490811e-002 
-4.511847e-002 
-4.512959e-002 
-4.481198e-002 
-4.481335e-002 
-4.502382e-002 
-4.489019e-002 
-4.471961e-002 
-4.489073e-002 
-4.498462e-002 
-4.481505e-002 
-4.474273e-002 
-4.485107e-002 
-4.469258e-002 
-4.440922e-002 
-4.430256e-002 
-4.428128e-002 
-4.404856e-002 
-4.380980e-002 
-4.388735e-002 
-4.394658e-002 
-4.369525e-002 
-4.355097e-002 
-4.361694e-002 
-4.338347e-002 
-4.304361e-002 
-4.306640e-002 
-4.303260e-002 
-4.267342e-002 
-4.248932e-002 
-4.256027e-002 
-4.241997e-002 
-4.221674e-002 
-4.231603e-002 
-4.241420e-002 
-4.232005e-002 
-4.233675e-002 
-4.245862e-002 
-4.240407e-002 
-4.226828e-002 
-4.231234e-002 
-4.235657e-002 
-4.220733e-002 
-4.208612e-002 
-4.205677e-002 
-4.187195e-002 
-4.156573e-002 
-4.135590e-002 
-4.111518e-002 
-4.068476e-002 
-4.029639e-002 
-4.000056e-002 
-3.955288e-002 
-3.905686e-002 
-3.877347e-002 
-3.849658e-002 
-3.806795e-002 
-3.777745e-002 
-3.769877e-002 
-3.755562e-002 
-3.737727e-002 
-3.741165e-002 
-3.752120e-002 
-3.755589e-002 
-3.769238e-002 
-3.797272e-002 
-3.819614e-002 
-3.841674e-002 
-3.876213e-002 
-3.914305e-002 
-3.946648e-002 
-3.980825e-002 
-4.021348e-002 
-4.060506e-002 
-4.093850e-002 
-4.126464e-002 
-4.164315e-002 
-4.199702e-002 
-4.225411e-002 
-4.252578e-002 
-4.286724e-002 
-4.311232e-002 
-4.325756e-002 
-4.350730e-002 
-4.376889e-002 
-4.385686e-002 
-4.396561e-002 
-4.420120e-002 
-4.430173e-002 
-4.429526e-002 
-4.443814e-002 
-4.458027e-002 
-4.454150e-002 
-4.455867e-002 
-4.470044e-002 
-4.471814e-002 
-4.465369e-002 
-4.471972e-002 
-4.479144e-002 
-4.472520e-002 
-4.469018e-002 
-4.475785e-002 
-4.475113e-002 
-4.465800e-002 
-4.465158e-002 
-4.469869e-002 
-4.463651e-002 
-4.455257e-002 
-4.458611e-002 
-4.459521e-002 
-4.448725e-002 
-4.445774e-002 
-4.451439e-002 
-4.444469e-002 
-4.433595e-002 
-4.438950e-002 
-4.441312e-002 
-4.427128e-002 
-4.423643e-002 
-4.434454e-002 
-4.429281e-002 
-4.414842e-002 
-4.420019e-002 
-4.427876e-002 
-4.415407e-002 
-4.407013e-002 
-4.417690e-002 
-4.419178e-002 
-4.404114e-002 
-4.403370e-002 
-4.415831e-002 
-4.411005e-002 
-4.396508e-002 
-4.402028e-002 
-4.414394e-002 
-4.405411e-002 
-4.393310e-002 
-4.402274e-002 
-4.409456e-002 
-4.397400e-002 
-4.392729e-002 
-4.403368e-002 
-4.400899e-002 
-4.389118e-002 
-4.394545e-002 
-4.401444e-002 
-4.389440e-002 
-4.382752e-002 
-4.393072e-002 
-4.392409e-002 
-4.379575e-002 
-4.382328e-002 
-4.389657e-002 
-4.380309e-002 
-4.375905e-002 
-4.385536e-002 
-4.382240e-002 
-4.370685e-002 
-4.375892e-002 
-4.382642e-002 
-4.373169e-002 
-4.366893e-002 
-4.373882e-002 
-4.374975e-002 
-4.367129e-002 
-4.366273e-002 
-4.371307e-002 
-4.369041e-002 
-4.363587e-002 
-4.366386e-002 
-4.370232e-002 
-4.364399e-002 
-4.360582e-002 
-4.368625e-002 
-4.370863e-002 
-4.361236e-002 
-4.361781e-002 
-4.371386e-002 
-4.367807e-002 
-4.360447e-002 
-4.365551e-002 
-4.367777e-002 
-4.362293e-002 
-4.364619e-002 
-4.368565e-002 
-4.363349e-002 
-4.360713e-002 
-4.364966e-002 
-4.365020e-002 
-4.362288e-002 
-4.362493e-002 
-4.362346e-002 
-4.361840e-002 
-4.362776e-002 
-4.361898e-002 
-4.360131e-002 
-4.360873e-002 
-4.361556e-002 
-4.361184e-002 
-4.360659e-002 
-4.358516e-002 
-4.359176e-002 
-4.362448e-002 
-4.360218e-002 
-4.355947e-002 
-4.358612e-002 
-4.360164e-002 
-4.356114e-002 
-4.355946e-002 
-4.357382e-002 
-4.352905e-002 
-4.351550e-002 
-4.355913e-002 
-4.353413e-002 
-4.348070e-002 
-4.351317e-002 
-4.352523e-002 
-4.346564e-002 
-4.346323e-002 
-4.349672e-002 
-4.345248e-002 
-4.341994e-002 
-4.345897e-002 
-4.344702e-002 
-4.339532e-002 
-4.341360e-002 
-4.343391e-002 
-4.339281e-002 
-4.338704e-002 
-4.342417e-002 
-4.340477e-002 
-4.337075e-002 
-4.340182e-002 
-4.341920e-002 
-4.338204e-002 
-4.337583e-002 
-4.340831e-002 
-4.339809e-002 
-4.336637e-002 
-4.337158e-002 
-4.338214e-002 
-4.336306e-002 
-4.335217e-002 
-4.335913e-002 
-4.334757e-002 
-4.332667e-002 
-4.333279e-002 
-4.334491e-002 
-4.332526e-002 
-4.331356e-002 
-4.333397e-002 
-4.333662e-002 
-4.331337e-002 
-4.333436e-002 
-4.336072e-002 
-4.336072e-002 
1.110223e-016 
-4.657752e-002 
-4.597255e-002 
-4.498922e-002 
-4.415392e-002 
-4.583464e-002 
-4.606346e-002 
-4.462731e-002 
-4.484396e-002 
-4.619006e-002 
-4.528345e-002 
-4.450120e-002 
-4.536399e-002 
-4.609682e-002 
-4.495583e-002 
-4.438005e-002 
-4.591199e-002 
-4.576947e-002 
-4.428025e-002 
-4.520304e-002 
-4.596696e-002 
-4.479491e-002 
-4.473084e-002 
-4.565021e-002 
-4.526806e-002 
-4.480885e-002 
-4.520190e-002 
-4.525543e-002 
-4.509517e-002 
-4.517333e-002 
-4.502295e-002 
-4.513023e-002 
-4.537988e-002 
-4.489899e-002 
-4.493241e-002 
-4.560079e-002 
-4.506395e-002 
-4.455926e-002 
-4.549160e-002 
-4.555123e-002 
-4.445121e-002 
-4.498704e-002 
-4.583538e-002 
-4.481597e-002 
-4.443541e-002 
-4.576007e-002 
-4.531709e-002 
-4.426208e-002 
-4.528266e-002 
-4.570447e-002 
-4.436724e-002 
-4.498907e-002 
-4.560107e-002 
-4.455291e-002 
-4.506580e-002 
-4.537637e-002 
-4.455660e-002 
-4.506981e-002 
-4.537318e-002 
-4.450388e-002 
-4.495191e-002 
-4.539972e-002 
-4.458459e-002 
-4.464407e-002 
-4.539125e-002 
-4.489414e-002 
-4.419430e-002 
-4.522615e-002 
-4.518921e-002 
-4.408453e-002 
-4.469589e-002 
-4.538982e-002 
-4.433481e-002 
-4.412892e-002 
-4.513682e-002 
-4.480944e-002 
-4.395480e-002 
-4.447092e-002 
-4.513078e-002 
-4.421240e-002 
-4.388358e-002 
-4.486886e-002 
-4.458653e-002 
-4.366043e-002 
-4.432064e-002 
-4.476538e-002 
-4.393247e-002 
-4.375287e-002 
-4.446969e-002 
-4.416730e-002 
-4.340418e-002 
-4.389620e-002 
-4.431314e-002 
-4.371460e-002 
-4.337349e-002 
-4.388354e-002 
-4.374322e-002 
-4.300275e-002 
-4.344244e-002 
-4.415862e-002 
-4.320844e-002 
-4.235361e-002 
-4.355713e-002 
-4.409460e-002 
-4.242403e-002 
-4.205805e-002 
-4.378623e-002 
-4.355804e-002 
-4.175048e-002 
-4.232080e-002 
-4.375259e-002 
-4.267794e-002 
-4.139090e-002 
-4.251377e-002 
-4.332386e-002 
-4.189036e-002 
-4.155166e-002 
-4.267616e-002 
-4.279877e-002 
-4.107033e-002 
-4.127526e-002 
-4.381339e-002 
-4.140780e-002 
-4.044954e-002 
-4.287620e-002 
-4.227329e-002 
-4.072690e-002 
-4.177038e-002 
-4.259224e-002 
-4.123486e-002 
-4.133099e-002 
-4.234813e-002 
-4.169216e-002 
-4.104300e-002 
-4.218422e-002 
-4.208196e-002 
-4.101164e-002 
-4.182858e-002 
-4.236052e-002 
-4.124439e-002 
-4.146451e-002 
-4.253733e-002 
-4.170975e-002 
-4.111350e-002 
-4.219295e-002 
-4.235921e-002 
-4.150237e-002 
-4.169192e-002 
-4.257114e-002 
-4.222771e-002 
-4.140110e-002 
-4.229210e-002 
-4.282288e-002 
-4.172998e-002 
-4.186241e-002 
-4.285888e-002 
-4.236857e-002 
-4.180063e-002 
-4.245544e-002 
-4.279461e-002 
-4.218127e-002 
-4.209039e-002 
-4.272921e-002 
-4.271870e-002 
-4.224677e-002 
-4.244917e-002 
-4.278755e-002 
-4.260722e-002 
-4.238773e-002 
-4.260746e-002 
-4.287879e-002 
-4.263099e-002 
-4.241038e-002 
-4.283972e-002 
-4.296319e-002 
-4.249205e-002 
-4.262327e-002 
-4.312409e-002 
-4.284852e-002 
-4.255852e-002 
-4.307157e-002 
-4.328274e-002 
-4.282717e-002 
-4.297534e-002 
-4.354812e-002 
-4.334542e-002 
-4.309537e-002 
-4.366818e-002 
-4.391445e-002 
-4.346082e-002 
-4.367829e-002 
-4.437685e-002 
-4.411994e-002 
-4.368535e-002 
-4.435174e-002 
-4.482597e-002 
-4.417116e-002 
-4.408744e-002 
-4.492791e-002 
-4.486366e-002 
-4.415342e-002 
-4.460733e-002 
-4.523339e-002 
-4.463486e-002 
-4.435007e-002 
-4.513994e-002 
-4.519300e-002 
-4.447094e-002 
-4.474209e-002 
-4.538312e-002 
-4.492257e-002 
-4.457678e-002 
-4.524252e-002 
-4.538021e-002 
-4.470305e-002 
-4.490873e-002 
-4.558900e-002 
-4.515302e-002 
-4.471076e-002 
-4.544851e-002 
-4.575279e-002 
-4.489374e-002 
-4.491843e-002 
-4.592449e-002 
-4.568232e-002 
-4.479091e-002 
-4.538467e-002 
-4.621413e-002 
-4.541876e-002 
-4.492452e-002 
-4.596600e-002 
-4.617319e-002 
-4.510417e-002 
-4.535325e-002 
-4.636727e-002 
-4.578499e-002 
-4.502634e-002 
-4.589908e-002 
-4.629358e-002 
-4.527763e-002 
-4.526455e-002 
-4.619309e-002 
-4.577673e-002 
-4.503362e-002 
-4.560960e-002 
-4.592792e-002 
-4.519742e-002 
-4.511388e-002 
-4.562198e-002 
-4.535919e-002 
-4.493970e-002 
-4.526739e-002 
-4.541825e-002 
-4.503320e-002 
-4.502048e-002 
-4.529548e-002 
-4.512896e-002 
-4.488380e-002 
-4.501877e-002 
-4.506942e-002 
-4.483304e-002 
-4.479117e-002 
-4.494082e-002 
-4.489336e-002 
-4.475241e-002 
-4.486005e-002 
-4.499324e-002 
-4.481870e-002 
-4.465817e-002 
-4.468791e-002 
-4.459257e-002 
-4.425342e-002 
-4.407166e-002 
-4.412631e-002 
-4.393819e-002 
-4.371433e-002 
-4.382308e-002 
-4.385017e-002 
-4.354870e-002 
-4.342276e-002 
-4.345205e-002 
-4.320457e-002 
-4.290416e-002 
-4.288271e-002 
-4.278202e-002 
-4.247320e-002 
-4.237615e-002 
-4.243874e-002 
-4.233898e-002 
-4.221579e-002 
-4.228994e-002 
-4.241066e-002 
-4.240605e-002 
-4.235184e-002 
-4.238427e-002 
-4.237899e-002 
-4.228063e-002 
-4.226936e-002 
-4.229756e-002 
-4.213777e-002 
-4.193304e-002 
-4.186488e-002 
-4.167778e-002 
-4.129325e-002 
-4.100679e-002 
-4.076563e-002 
-4.031992e-002 
-3.984582e-002 
-3.954174e-002 
-3.915028e-002 
-3.865988e-002 
-3.835955e-002 
-3.815025e-002 
-3.782375e-002 
-3.755999e-002 
-3.748774e-002 
-3.745142e-002 
-3.738156e-002 
-3.739215e-002 
-3.754684e-002 
-3.773055e-002 
-3.787836e-002 
-3.811369e-002 
-3.847736e-002 
-3.876634e-002 
-3.903179e-002 
-3.945026e-002 
-3.987010e-002 
-4.014873e-002 
-4.050972e-002 
-4.097860e-002 
-4.130815e-002 
-4.155637e-002 
-4.195297e-002 
-4.233661e-002 
-4.253685e-002 
-4.277227e-002 
-4.314056e-002 
-4.336345e-002 
-4.346003e-002 
-4.370231e-002 
-4.397287e-002 
-4.402685e-002 
-4.409469e-002 
-4.432082e-002 
-4.443969e-002 
-4.440672e-002 
-4.450314e-002 
-4.465844e-002 
-4.464578e-002 
-4.460076e-002 
-4.470466e-002 
-4.477813e-002 
-4.470397e-002 
-4.467690e-002 
-4.476447e-002 
-4.476316e-002 
-4.467974e-002 
-4.469117e-002 
-4.474648e-002 
-4.468934e-002 
-4.462732e-002 
-4.466123e-002 
-4.465270e-002 
-4.457141e-002 
-4.456320e-002 
-4.457027e-002 
-4.448579e-002 
-4.444984e-002 
-4.448991e-002 
-4.442281e-002 
-4.432616e-002 
-4.438804e-002 
-4.441112e-002 
-4.425729e-002 
-4.423118e-002 
-4.436512e-002 
-4.429776e-002 
-4.412772e-002 
-4.421287e-002 
-4.431730e-002 
-4.415041e-002 
-4.405303e-002 
-4.421645e-002 
-4.422172e-002 
-4.400915e-002 
-4.402229e-002 
-4.419687e-002 
-4.411171e-002 
-4.392867e-002 
-4.403661e-002 
-4.417903e-002 
-4.402077e-002 
-4.389238e-002 
-4.405490e-002 
-4.412793e-002 
-4.393184e-002 
-4.388835e-002 
-4.407284e-002 
-4.404580e-002 
-4.384187e-002 
-4.390251e-002 
-4.405880e-002 
-4.392836e-002 
-4.378656e-002 
-4.391127e-002 
-4.396132e-002 
-4.382315e-002 
-4.381114e-002 
-4.388831e-002 
-4.383030e-002 
-4.376637e-002 
-4.382851e-002 
-4.382696e-002 
-4.373242e-002 
-4.373572e-002 
-4.379558e-002 
-4.375151e-002 
-4.369508e-002 
-4.371512e-002 
-4.373146e-002 
-4.370769e-002 
-4.370030e-002 
-4.370235e-002 
-4.368284e-002 
-4.367708e-002 
-4.370362e-002 
-4.369270e-002 
-4.364541e-002 
-4.365885e-002 
-4.370776e-002 
-4.368358e-002 
-4.364314e-002 
-4.367125e-002 
-4.369036e-002 
-4.366240e-002 
-4.367650e-002 
-4.368976e-002 
-4.364217e-002 
-4.364461e-002 
-4.369828e-002 
-4.366501e-002 
-4.361191e-002 
-4.365699e-002 
-4.368387e-002 
-4.363713e-002 
-4.363238e-002 
-4.366026e-002 
-4.363281e-002 
-4.362026e-002 
-4.365503e-002 
-4.363925e-002 
-4.360145e-002 
-4.362684e-002 
-4.365839e-002 
-4.364470e-002 
-4.362243e-002 
-4.362458e-002 
-4.362570e-002 
-4.362473e-002 
-4.361337e-002 
-4.360016e-002 
-4.359095e-002 
-4.358587e-002 
-4.359430e-002 
-4.360184e-002 
-4.357578e-002 
-4.354838e-002 
-4.356657e-002 
-4.358126e-002 
-4.353087e-002 
-4.350745e-002 
-4.354369e-002 
-4.352499e-002 
-4.346611e-002 
-4.349149e-002 
-4.351828e-002 
-4.345061e-002 
-4.342084e-002 
-4.347316e-002 
-4.346090e-002 
-4.339967e-002 
-4.342156e-002 
-4.346335e-002 
-4.341895e-002 
-4.338640e-002 
-4.342918e-002 
-4.343057e-002 
-4.337900e-002 
-4.338747e-002 
-4.342757e-002 
-4.340156e-002 
-4.336676e-002 
-4.339500e-002 
-4.341464e-002 
-4.337365e-002 
-4.335445e-002 
-4.337828e-002 
-4.336941e-002 
-4.334036e-002 
-4.334867e-002 
-4.335815e-002 
-4.334122e-002 
-4.334167e-002 
-4.335119e-002 
-4.333983e-002 
-4.333329e-002 
-4.334772e-002 
-4.334247e-002 
-4.332922e-002 
-4.334133e-002 
-4.334133e-002 
1.110223e-016 
-4.452017e-002 
-4.777353e-002 
-4.520742e-002 
-4.362232e-002 
-4.586500e-002 
-4.645712e-002 
-4.474354e-002 
-4.442019e-002 
-4.588711e-002 
-4.588070e-002 
-4.474335e-002 
-4.490995e-002 
-4.583575e-002 
-4.534115e-002 
-4.472104e-002 
-4.541644e-002 
-4.571304e-002 
-4.475760e-002 
-4.496145e-002 
-4.583646e-002 
-4.509853e-002 
-4.463462e-002 
-4.567831e-002 
-4.537996e-002 
-4.451590e-002 
-4.542146e-002 
-4.572796e-002 
-4.450439e-002 
-4.498656e-002 
-4.595162e-002 
-4.484279e-002 
-4.450870e-002 
-4.590726e-002 
-4.537620e-002 
-4.422445e-002 
-4.537376e-002 
-4.602092e-002 
-4.450090e-002 
-4.453180e-002 
-4.601284e-002 
-4.540611e-002 
-4.406111e-002 
-4.530106e-002 
-4.615088e-002 
-4.442035e-002 
-4.424296e-002 
-4.636036e-002 
-4.533138e-002 
-4.352992e-002 
-4.577163e-002 
-4.630075e-002 
-4.355780e-002 
-4.481877e-002 
-4.666054e-002 
-4.423188e-002 
-4.406824e-002 
-4.627291e-002 
-4.517106e-002 
-4.386612e-002 
-4.528417e-002 
-4.579713e-002 
-4.435758e-002 
-4.442341e-002 
-4.555092e-002 
-4.511119e-002 
-4.418469e-002 
-4.486841e-002 
-4.539031e-002 
-4.453851e-002 
-4.427615e-002 
-4.514713e-002 
-4.492675e-002 
-4.413559e-002 
-4.467277e-002 
-4.496379e-002 
-4.434209e-002 
-4.437873e-002 
-4.469933e-002 
-4.449988e-002 
-4.432702e-002 
-4.431557e-002 
-4.444363e-002 
-4.442445e-002 
-4.409508e-002 
-4.416216e-002 
-4.440059e-002 
-4.413076e-002 
-4.382836e-002 
-4.406531e-002 
-4.416912e-002 
-4.381440e-002 
-4.361925e-002 
-4.396028e-002 
-4.386093e-002 
-4.336055e-002 
-4.349536e-002 
-4.395252e-002 
-4.349429e-002 
-4.279633e-002 
-4.333102e-002 
-4.396999e-002 
-4.314845e-002 
-4.237644e-002 
-4.308986e-002 
-4.369098e-002 
-4.282210e-002 
-4.220968e-002 
-4.285586e-002 
-4.325464e-002 
-4.250382e-002 
-4.210445e-002 
-4.256728e-002 
-4.281549e-002 
-4.222372e-002 
-4.204215e-002 
-4.223056e-002 
-4.228864e-002 
-4.203903e-002 
-4.207752e-002 
-4.178949e-002 
-4.200648e-002 
-4.222907e-002 
-4.109780e-002 
-4.196456e-002 
-4.267493e-002 
-4.095263e-002 
-4.099740e-002 
-4.298142e-002 
-4.201735e-002 
-4.021944e-002 
-4.195409e-002 
-4.308076e-002 
-4.091955e-002 
-4.057488e-002 
-4.293505e-002 
-4.227416e-002 
-4.023319e-002 
-4.178267e-002 
-4.313303e-002 
-4.113849e-002 
-4.077721e-002 
-4.272339e-002 
-4.229566e-002 
-4.078804e-002 
-4.186426e-002 
-4.289423e-002 
-4.169203e-002 
-4.124384e-002 
-4.259086e-002 
-4.255450e-002 
-4.142506e-002 
-4.204360e-002 
-4.283932e-002 
-4.197234e-002 
-4.186141e-002 
-4.273335e-002 
-4.243781e-002 
-4.189373e-002 
-4.249997e-002 
-4.269599e-002 
-4.208848e-002 
-4.234805e-002 
-4.294600e-002 
-4.242191e-002 
-4.213852e-002 
-4.278209e-002 
-4.280990e-002 
-4.230781e-002 
-4.252705e-002 
-4.288382e-002 
-4.265149e-002 
-4.246279e-002 
-4.275968e-002 
-4.287971e-002 
-4.264242e-002 
-4.264648e-002 
-4.292121e-002 