# vtk DataFile Version 2.0
2D-ADE data file 
ASCII
DATASET RECTILINEAR_GRID
DIMENSIONS 512 128 1
X_COORDINATES 512 int
0 1 2 3 4 5 6 7 8 9 10 11 12 13 14 15 16 17 18 19 20 21 22 23 24 25 26 27 28 29 30 31 32 33 34 35 36 37 38 39 40 41 42 43 44 45 46 47 48 49 50 51 52 53 54 55 56 57 58 59 60 61 62 63 64 65 66 67 68 69 70 71 72 73 74 75 76 77 78 79 80 81 82 83 84 85 86 87 88 89 90 91 92 93 94 95 96 97 98 99 100 101 102 103 104 105 106 107 108 109 110 111 112 113 114 115 116 117 118 119 120 121 122 123 124 125 126 127 128 129 130 131 132 133 134 135 136 137 138 139 140 141 142 143 144 145 146 147 148 149 150 151 152 153 154 155 156 157 158 159 160 161 162 163 164 165 166 167 168 169 170 171 172 173 174 175 176 177 178 179 180 181 182 183 184 185 186 187 188 189 190 191 192 193 194 195 196 197 198 199 200 201 202 203 204 205 206 207 208 209 210 211 212 213 214 215 216 217 218 219 220 221 222 223 224 225 226 227 228 229 230 231 232 233 234 235 236 237 238 239 240 241 242 243 244 245 246 247 248 249 250 251 252 253 254 255 256 257 258 259 260 261 262 263 264 265 266 267 268 269 270 271 272 273 274 275 276 277 278 279 280 281 282 283 284 285 286 287 288 289 290 291 292 293 294 295 296 297 298 299 300 301 302 303 304 305 306 307 308 309 310 311 312 313 314 315 316 317 318 319 320 321 322 323 324 325 326 327 328 329 330 331 332 333 334 335 336 337 338 339 340 341 342 343 344 345 346 347 348 349 350 351 352 353 354 355 356 357 358 359 360 361 362 363 364 365 366 367 368 369 370 371 372 373 374 375 376 377 378 379 380 381 382 383 384 385 386 387 388 389 390 391 392 393 394 395 396 397 398 399 400 401 402 403 404 405 406 407 408 409 410 411 412 413 414 415 416 417 418 419 420 421 422 423 424 425 426 427 428 429 430 431 432 433 434 435 436 437 438 439 440 441 442 443 444 445 446 447 448 449 450 451 452 453 454 455 456 457 458 459 460 461 462 463 464 465 466 467 468 469 470 471 472 473 474 475 476 477 478 479 480 481 482 483 484 485 486 487 488 489 490 491 492 493 494 495 496 497 498 499 500 501 502 503 504 505 506 507 508 509 510 511 
Y_COORDINATES 128 int
0 1 2 3 4 5 6 7 8 9 10 11 12 13 14 15 16 17 18 19 20 21 22 23 24 25 26 27 28 29 30 31 32 33 34 35 36 37 38 39 40 41 42 43 44 45 46 47 48 49 50 51 52 53 54 55 56 57 58 59 60 61 62 63 64 65 66 67 68 69 70 71 72 73 74 75 76 77 78 79 80 81 82 83 84 85 86 87 88 89 90 91 92 93 94 95 96 97 98 99 100 101 102 103 104 105 106 107 108 109 110 111 112 113 114 115 116 117 118 119 120 121 122 123 124 125 126 127 
Z_COORDINATES 1 int
0
POINT_DATA 65536 
SCALARS density double 1
LOOKUP_TABLE default
-2.117364e-002 
-3.109704e-002 
-2.770609e-002 
-2.728415e-002 
-2.734754e-002 
-2.731533e-002 
-2.748373e-002 
-2.735641e-002 
-2.732654e-002 
-2.737504e-002 
-2.741990e-002 
-2.733571e-002 
-2.742440e-002 
-2.730447e-002 
-2.737541e-002 
-2.745531e-002 
-2.730036e-002 
-2.734702e-002 
-2.742810e-002 
-2.734943e-002 
-2.734392e-002 
-2.737210e-002 
-2.736217e-002 
-2.738455e-002 
-2.735570e-002 
-2.731469e-002 
-2.740290e-002 
-2.739820e-002 
-2.728587e-002 
-2.733934e-002 
-2.745717e-002 
-2.732947e-002 
-2.724988e-002 
-2.743864e-002 
-2.743506e-002 
-2.721815e-002 
-2.733818e-002 
-2.749947e-002 
-2.728862e-002 
-2.722061e-002 
-2.746932e-002 
-2.740144e-002 
-2.718145e-002 
-2.735211e-002 
-2.749181e-002 
-2.723036e-002 
-2.724201e-002 
-2.747262e-002 
-2.734656e-002 
-2.717472e-002 
-2.742266e-002 
-2.737286e-002 
-2.724011e-002 
-2.734566e-002 
-2.734764e-002 
-2.732952e-002 
-2.730252e-002 
-2.729040e-002 
-2.736519e-002 
-2.735367e-002 
-2.722491e-002 
-2.730963e-002 
-2.743597e-002 
-2.722533e-002 
-2.720341e-002 
-2.744503e-002 
-2.733015e-002 
-2.710161e-002 
-2.738901e-002 
-2.739077e-002 
-2.713055e-002 
-2.727824e-002 
-2.739580e-002 
-2.721308e-002 
-2.720025e-002 
-2.734484e-002 
-2.726148e-002 
-2.722191e-002 
-2.725751e-002 
-2.725943e-002 
-2.724710e-002 
-2.723645e-002 
-2.722006e-002 
-2.723569e-002 
-2.724534e-002 
-2.720679e-002 
-2.720022e-002 
-2.722829e-002 
-2.721067e-002 
-2.716048e-002 
-2.720799e-002 
-2.721612e-002 
-2.713213e-002 
-2.715095e-002 
-2.724151e-002 
-2.712325e-002 
-2.704707e-002 
-2.722287e-002 
-2.720729e-002 
-2.698991e-002 
-2.708989e-002 
-2.727394e-002 
-2.703623e-002 
-2.691326e-002 
-2.717904e-002 
-2.719777e-002 
-2.689389e-002 
-2.695496e-002 
-2.720516e-002 
-2.703071e-002 
-2.684393e-002 
-2.706405e-002 
-2.708914e-002 
-2.686650e-002 
-2.695728e-002 
-2.704551e-002 
-2.693244e-002 
-2.689988e-002 
-2.693922e-002 
-2.694894e-002 
-2.696672e-002 
-2.676634e-002 
-2.699859e-002 
-2.696326e-002 
-2.669689e-002 
-2.696408e-002 
-2.691300e-002 
-2.677105e-002 
-2.675621e-002 
-2.691449e-002 
-2.680142e-002 
-2.665621e-002 
-2.684200e-002 
-2.683652e-002 
-2.668333e-002 
-2.667492e-002 
-2.683149e-002 
-2.671579e-002 
-2.663116e-002 
-2.670654e-002 
-2.679003e-002 
-2.664955e-002 
-2.661810e-002 
-2.672422e-002 
-2.670831e-002 
-2.655839e-002 
-2.662541e-002 
-2.673043e-002 
-2.658502e-002 
-2.656700e-002 
-2.666516e-002 
-2.659968e-002 
-2.650946e-002 
-2.663327e-002 
-2.661828e-002 
-2.650773e-002 
-2.651129e-002 
-2.663790e-002 
-2.654014e-002 
-2.644344e-002 
-2.656180e-002 
-2.660792e-002 
-2.645174e-002 
-2.646540e-002 
-2.658924e-002 
-2.654257e-002 
-2.643073e-002 
-2.651619e-002 
-2.657369e-002 
-2.649980e-002 
-2.645821e-002 
-2.655884e-002 
-2.655429e-002 
-2.645846e-002 
-2.651283e-002 
-2.658900e-002 
-2.648711e-002 
-2.647578e-002 
-2.658784e-002 
-2.654819e-002 
-2.647507e-002 
-2.655794e-002 
-2.660871e-002 
-2.651432e-002 
-2.652066e-002 
-2.660944e-002 
-2.657005e-002 
-2.650564e-002 
-2.657081e-002 
-2.660461e-002 
-2.655167e-002 
-2.653762e-002 
-2.659504e-002 
-2.659121e-002 
-2.654464e-002 
-2.654831e-002 
-2.658691e-002 
-2.657349e-002 
-2.653915e-002 
-2.655236e-002 
-2.659054e-002 
-2.656634e-002 
-2.652781e-002 
-2.656031e-002 
-2.659007e-002 
-2.654059e-002 
-2.651929e-002 
-2.658048e-002 
-2.657202e-002 
-2.650614e-002 
-2.652931e-002 
-2.658062e-002 
-2.651997e-002 
-2.647508e-002 
-2.654202e-002 
-2.654131e-002 
-2.645795e-002 
-2.647186e-002 
-2.653341e-002 
-2.647914e-002 
-2.642191e-002 
-2.648162e-002 
-2.651712e-002 
-2.642483e-002 
-2.639981e-002 
-2.646182e-002 
-2.640866e-002 
-2.630919e-002 
-2.635545e-002 
-2.640458e-002 
-2.632684e-002 
-2.632492e-002 
-2.643899e-002 
-2.645326e-002 
-2.635600e-002 
-2.636886e-002 
-2.643705e-002 
-2.634487e-002 
-2.626151e-002 
-2.632883e-002 
-2.634682e-002 
-2.624112e-002 
-2.623221e-002 
-2.632531e-002 
-2.628414e-002 
-2.620022e-002 
-2.627540e-002 
-2.632720e-002 
-2.622461e-002 
-2.619153e-002 
-2.627049e-002 
-2.620755e-002 
-2.606788e-002 
-2.607206e-002 
-2.604343e-002 
-2.588495e-002 
-2.579890e-002 
-2.578883e-002 
-2.570157e-002 
-2.561526e-002 
-2.563419e-002 
-2.564706e-002 
-2.562137e-002 
-2.566413e-002 
-2.576089e-002 
-2.582392e-002 
-2.588561e-002 
-2.600518e-002 
-2.613125e-002 
-2.621089e-002 
-2.630926e-002 
-2.643915e-002 
-2.653449e-002 
-2.659200e-002 
-2.667622e-002 
-2.676464e-002 
-2.679832e-002 
-2.682393e-002 
-2.688596e-002 
-2.692132e-002 
-2.691067e-002 
-2.693296e-002 
-2.697557e-002 
-2.696509e-002 
-2.694842e-002 
-2.698246e-002 
-2.699651e-002 
-2.696419e-002 
-2.696398e-002 
-2.699963e-002 
-2.698552e-002 
-2.695462e-002 
-2.697835e-002 
-2.699619e-002 
-2.696281e-002 
-2.695753e-002 
-2.698683e-002 
-2.697398e-002 
-2.694590e-002 
-2.696255e-002 
-2.697566e-002 
-2.694735e-002 
-2.694325e-002 
-2.696743e-002 
-2.695462e-002 
-2.693055e-002 
-2.695223e-002 
-2.696311e-002 
-2.693571e-002 
-2.693215e-002 
-2.696148e-002 
-2.695124e-002 
-2.691642e-002 
-2.693934e-002 
-2.696333e-002 
-2.692294e-002 
-2.690475e-002 
-2.695143e-002 
-2.695073e-002 
-2.689934e-002 
-2.691493e-002 
-2.696889e-002 
-2.693590e-002 
-2.689200e-002 
-2.694623e-002 
-2.697866e-002 
-2.691900e-002 
-2.690846e-002 
-2.697270e-002 
-2.696369e-002 
-2.690505e-002 
-2.693168e-002 
-2.697926e-002 
-2.694055e-002 
-2.691033e-002 
-2.695111e-002 
-2.696585e-002 
-2.692876e-002 
-2.693146e-002 
-2.696248e-002 
-2.695340e-002 
-2.693552e-002 
-2.695778e-002 
-2.696876e-002 
-2.694597e-002 
-2.694904e-002 
-2.697371e-002 
-2.696228e-002 
-2.693614e-002 
-2.695771e-002 
-2.697655e-002 
-2.694847e-002 
-2.693392e-002 
-2.696784e-002 
-2.697420e-002 
-2.694242e-002 
-2.694667e-002 
-2.698143e-002 
-2.696910e-002 
-2.694245e-002 
-2.696946e-002 
-2.698639e-002 
-2.695247e-002 
-2.695182e-002 
-2.698734e-002 
-2.696849e-002 
-2.693759e-002 
-2.697363e-002 
-2.698703e-002 
-2.693954e-002 
-2.695017e-002 
-2.699860e-002 
-2.696495e-002 
-2.693312e-002 
-2.698574e-002 
-2.699623e-002 
-2.694147e-002 
-2.695835e-002 
-2.700998e-002 
-2.697587e-002 
-2.694376e-002 
-2.699351e-002 
-2.701015e-002 
-2.696051e-002 
-2.696295e-002 
-2.700614e-002 
-2.698975e-002 
-2.695638e-002 
-2.697828e-002 
-2.699729e-002 
-2.697446e-002 
-2.696459e-002 
-2.698223e-002 
-2.698534e-002 
-2.697459e-002 
-2.697433e-002 
-2.698488e-002 
-2.698655e-002 
-2.697817e-002 
-2.697714e-002 
-2.699196e-002 
-2.698825e-002 
-2.697395e-002 
-2.697995e-002 
-2.699259e-002 
-2.697977e-002 
-2.697262e-002 
-2.698692e-002 
-2.698903e-002 
-2.698027e-002 
-2.698445e-002 
-2.699085e-002 
-2.698650e-002 
-2.698753e-002 
-2.699378e-002 
-2.699058e-002 
-2.698829e-002 
-2.699614e-002 
-2.699868e-002 
-2.699400e-002 
-2.699667e-002 
-2.700274e-002 
-2.700514e-002 
-2.700361e-002 
-2.700249e-002 
-2.700925e-002 
-2.701364e-002 
-2.701085e-002 
-2.701022e-002 
-2.701512e-002 
-2.701641e-002 
-2.701494e-002 
-2.701701e-002 
-2.701938e-002 
-2.701663e-002 
-2.701985e-002 
-2.702374e-002 
-2.701573e-002 
-2.701575e-002 
-2.702249e-002 
-2.701363e-002 
-2.700584e-002 
-2.701565e-002 
-2.701400e-002 
-2.699928e-002 
-2.700486e-002 
-2.701610e-002 
-2.700220e-002 
-2.699539e-002 
-2.701217e-002 
-2.700790e-002 
-2.699362e-002 
-2.700851e-002 
-2.701409e-002 
-2.699687e-002 
-2.700135e-002 
-2.701818e-002 
-2.700694e-002 
-2.699714e-002 
-2.701161e-002 
-2.701348e-002 
-2.699813e-002 
-2.700652e-002 
-2.701885e-002 
-2.700498e-002 
-2.700046e-002 
-2.701737e-002 
-2.701273e-002 
-2.700076e-002 
-2.701210e-002 
-2.701985e-002 
-2.700779e-002 
-2.700426e-002 
-2.701917e-002 
-2.701673e-002 
-2.700254e-002 
-2.701353e-002 
-2.702343e-002 
-2.701214e-002 
-2.700651e-002 
-2.702042e-002 
-2.702600e-002 
-2.701295e-002 
-2.701239e-002 
-2.702957e-002 
-2.702819e-002 
-2.701387e-002 
-2.702094e-002 
-2.703666e-002 
-2.702507e-002 
-2.701803e-002 
-2.703579e-002 
-2.704188e-002 
-2.702662e-002 
-2.702904e-002 
-2.704414e-002 
-2.704005e-002 
-2.702706e-002 
-2.703919e-002 
-2.704644e-002 
-2.703290e-002 
-2.703091e-002 
-2.704749e-002 
-2.704218e-002 
-2.702914e-002 
-2.703849e-002 
-2.704969e-002 
-2.703579e-002 
-2.702885e-002 
-2.704495e-002 
-2.705352e-002 
-2.128557e-002 
1.110223e-016 
-4.841216e-002 
-4.226189e-002 
-4.499009e-002 
-4.871144e-002 
-4.661023e-002 
-4.436983e-002 
-4.639734e-002 
-4.774917e-002 
-4.533399e-002 
-4.512160e-002 
-4.745108e-002 
-4.671523e-002 
-4.492665e-002 
-4.614677e-002 
-4.725808e-002 
-4.588275e-002 
-4.524444e-002 
-4.691112e-002 
-4.668392e-002 
-4.517945e-002 
-4.608100e-002 
-4.701813e-002 
-4.580331e-002 
-4.557099e-002 
-4.668273e-002 
-4.626158e-002 
-4.553095e-002 
-4.633728e-002 
-4.653761e-002 
-4.565429e-002 
-4.590615e-002 
-4.658033e-002 
-4.599692e-002 
-4.574501e-002 
-4.637748e-002 
-4.618772e-002 
-4.565836e-002 
-4.619280e-002 
-4.645182e-002 
-4.563613e-002 
-4.567837e-002 
-4.656526e-002 
-4.608571e-002 
-4.532067e-002 
-4.621122e-002 
-4.644449e-002 
-4.538591e-002 
-4.583066e-002 
-4.667866e-002 
-4.542881e-002 
-4.538433e-002 
-4.678506e-002 
-4.593313e-002 
-4.513015e-002 
-4.625433e-002 
-4.644544e-002 
-4.529502e-002 
-4.558584e-002 
-4.654786e-002 
-4.591500e-002 
-4.516725e-002 
-4.598225e-002 
-4.636202e-002 
-4.527730e-002 
-4.549538e-002 
-4.644637e-002 
-4.557457e-002 
-4.495528e-002 
-4.619825e-002 
-4.613028e-002 
-4.490259e-002 
-4.555185e-002 
-4.618150e-002 
-4.532440e-002 
-4.518102e-002 
-4.597935e-002 
-4.557153e-002 
-4.497049e-002 
-4.562841e-002 
-4.586346e-002 
-4.504484e-002 
-4.502764e-002 
-4.576700e-002 
-4.551382e-002 
-4.490551e-002 
-4.510320e-002 
-4.551230e-002 
-4.534158e-002 
-4.485381e-002 
-4.487894e-002 
-4.535099e-002 
-4.525464e-002 
-4.462804e-002 
-4.477883e-002 
-4.531120e-002 
-4.484894e-002 
-4.416361e-002 
-4.476047e-002 
-4.543898e-002 
-4.473192e-002 
-4.389969e-002 
-4.428915e-002 
-4.489518e-002 
-4.464525e-002 
-4.411114e-002 
-4.393299e-002 
-4.420147e-002 
-4.445555e-002 
-4.420462e-002 
-4.368360e-002 
-4.378869e-002 
-4.426022e-002 
-4.385016e-002 
-4.333776e-002 
-4.396092e-002 
-4.411836e-002 
-4.324883e-002 
-4.316507e-002 
-4.382359e-002 
-4.383033e-002 
-4.309714e-002 
-4.294030e-002 
-4.392687e-002 
-4.328624e-002 
-4.242716e-002 
-4.345674e-002 
-4.350189e-002 
-4.246235e-002 
-4.237448e-002 
-4.318797e-002 
-4.267048e-002 
-4.220442e-002 
-4.285771e-002 
-4.278857e-002 
-4.188140e-002 
-4.211480e-002 
-4.281451e-002 
-4.221000e-002 
-4.170499e-002 
-4.231648e-002 
-4.235918e-002 
-4.173552e-002 
-4.214344e-002 
-4.230005e-002 
-4.131145e-002 
-4.120792e-002 
-4.255405e-002 
-4.236126e-002 
-4.078077e-002 
-4.104131e-002 
-4.239273e-002 
-4.167850e-002 
-4.066938e-002 
-4.155728e-002 
-4.198306e-002 
-4.087084e-002 
-4.076413e-002 
-4.174492e-002 
-4.142340e-002 
-4.057237e-002 
-4.109673e-002 
-4.151331e-002 
-4.087011e-002 
-4.081192e-002 
-4.137207e-002 
-4.104783e-002 
-4.061909e-002 
-4.120982e-002 
-4.143480e-002 
-4.072095e-002 
-4.072855e-002 
-4.151629e-002 
-4.126002e-002 
-4.054467e-002 
-4.104473e-002 
-4.159161e-002 
-4.094634e-002 
-4.073137e-002 
-4.141477e-002 
-4.141325e-002 
-4.091841e-002 
-4.117476e-002 
-4.159659e-002 
-4.127671e-002 
-4.101128e-002 
-4.140915e-002 
-4.154236e-002 
-4.114992e-002 
-4.119329e-002 
-4.158073e-002 
-4.145903e-002 
-4.117749e-002 
-4.139519e-002 
-4.155722e-002 
-4.128603e-002 
-4.117738e-002 
-4.142374e-002 
-4.146698e-002 
-4.121764e-002 
-4.121990e-002 
-4.148354e-002 
-4.140765e-002 
-4.110646e-002 
-4.125512e-002 
-4.150349e-002 
-4.123438e-002 
-4.104974e-002 
-4.136976e-002 
-4.140511e-002 
-4.100943e-002 
-4.104749e-002 
-4.136558e-002 
-4.112320e-002 
-4.079419e-002 
-4.107265e-002 
-4.117866e-002 
-4.074614e-002 
-4.067909e-002 
-4.103076e-002 
-4.088688e-002 
-4.051167e-002 
-4.075207e-002 
-4.099162e-002 
-4.050917e-002 
-4.020491e-002 
-4.046870e-002 
-4.027084e-002 
-3.980518e-002 
-4.001241e-002 
-4.032499e-002 
-4.011974e-002 
-4.016210e-002 
-4.067854e-002 
-4.068761e-002 
-4.011884e-002 
-4.002839e-002 
-4.020646e-002 
-3.981307e-002 
-3.952236e-002 
-3.988911e-002 
-3.987814e-002 
-3.931331e-002 
-3.942496e-002 
-3.990437e-002 
-3.954779e-002 
-3.918996e-002 
-3.971697e-002 
-3.982854e-002 
-3.911539e-002 
-3.905575e-002 
-3.944516e-002 
-3.882129e-002 
-3.797551e-002 
-3.803409e-002 
-3.777377e-002 
-3.675146e-002 
-3.623031e-002 
-3.620625e-002 
-3.582217e-002 
-3.549087e-002 
-3.567526e-002 
-3.584387e-002 
-3.585783e-002 
-3.624904e-002 
-3.694455e-002 
-3.744179e-002 
-3.790029e-002 
-3.863738e-002 
-3.938051e-002 
-3.991021e-002 
-4.049662e-002 
-4.118504e-002 
-4.170893e-002 
-4.204632e-002 
-4.244941e-002 
-4.285717e-002 
-4.305268e-002 
-4.317371e-002 
-4.342777e-002 
-4.360744e-002 
-4.358413e-002 
-4.363565e-002 
-4.381344e-002 
-4.382011e-002 
-4.373723e-002 
-4.383533e-002 
-4.390698e-002 
-4.378096e-002 
-4.376053e-002 
-4.391504e-002 
-4.387895e-002 
-4.370673e-002 
-4.378050e-002 
-4.392021e-002 
-4.378654e-002 
-4.366758e-002 
-4.380777e-002 
-4.383043e-002 
-4.365508e-002 
-4.366170e-002 
-4.378693e-002 
-4.368571e-002 
-4.359416e-002 
-4.371587e-002 
-4.370072e-002 
-4.354342e-002 
-4.364159e-002 
-4.376797e-002 
-4.356989e-002 
-4.348274e-002 
-4.373723e-002 
-4.373233e-002 
-4.342280e-002 
-4.349919e-002 
-4.376774e-002 
-4.357272e-002 
-4.333211e-002 
-4.358277e-002 
-4.372631e-002 
-4.343376e-002 
-4.340552e-002 
-4.370772e-002 
-4.363752e-002 
-4.339767e-002 
-4.359240e-002 
-4.377742e-002 
-4.353448e-002 
-4.345576e-002 
-4.372695e-002 
-4.370367e-002 
-4.345631e-002 
-4.356859e-002 
-4.376376e-002 
-4.359349e-002 
-4.347367e-002 
-4.367603e-002 
-4.372229e-002 
-4.352826e-002 
-4.358212e-002 
-4.378002e-002 
-4.368152e-002 
-4.353534e-002 
-4.372515e-002 
-4.385690e-002 
-4.363082e-002 
-4.355193e-002 
-4.381809e-002 
-4.383707e-002 
-4.354001e-002 
-4.357902e-002 
-4.386963e-002 
-4.376028e-002 
-4.349459e-002 
-4.367667e-002 
-4.390276e-002 
-4.368267e-002 
-4.354509e-002 
-4.381671e-002 
-4.388031e-002 
-4.362530e-002 
-4.366908e-002 
-4.389208e-002 
-4.376188e-002 
-4.361401e-002 
-4.378780e-002 
-4.383951e-002 
-4.365493e-002 
-4.368807e-002 
-4.382538e-002 
-4.373548e-002 
-4.367926e-002 
-4.381462e-002 
-4.379318e-002 
-4.368816e-002 
-4.379333e-002 
-4.385923e-002 
-4.372297e-002 
-4.374987e-002 
-4.390990e-002 
-4.383765e-002 
-4.372909e-002 
-4.387394e-002 
-4.394325e-002 
-4.378061e-002 
-4.376659e-002 
-4.392087e-002 
-4.388398e-002 
-4.374371e-002 
-4.379181e-002 
-4.390149e-002 
-4.384055e-002 
-4.374888e-002 
-4.380958e-002 
-4.388567e-002 
-4.382557e-002 
-4.378607e-002 
-4.387261e-002 
-4.388371e-002 
-4.380027e-002 
-4.384145e-002 
-4.393113e-002 
-4.384391e-002 
-4.376596e-002 
-4.388563e-002 
-4.391709e-002 
-4.378214e-002 
-4.381724e-002 
-4.394037e-002 
-4.386028e-002 
-4.380601e-002 
-4.393253e-002 
-4.392802e-002 
-4.381930e-002 
-4.390351e-002 
-4.399257e-002 
-4.387732e-002 
-4.385186e-002 
-4.398759e-002 
-4.398481e-002 
-4.388957e-002 
-4.394532e-002 
-4.402835e-002 
-4.399276e-002 
-4.396553e-002 
-4.400480e-002 
-4.402677e-002 
-4.403521e-002 
-4.403997e-002 
-4.403290e-002 
-4.404752e-002 
-4.405938e-002 
-4.404806e-002 
-4.406571e-002 
-4.408949e-002 
-4.406421e-002 
-4.405096e-002 
-4.408898e-002 
-4.407633e-002 
-4.403177e-002 
-4.404995e-002 
-4.405230e-002 
-4.399671e-002 
-4.399912e-002 
-4.402651e-002 
-4.399340e-002 
-4.398070e-002 
-4.400829e-002 
-4.397612e-002 
-4.395682e-002 
-4.400891e-002 
-4.399821e-002 
-4.394258e-002 
-4.400083e-002 
-4.403956e-002 
-4.395640e-002 
-4.396131e-002 
-4.406095e-002 
-4.401815e-002 
-4.393710e-002 
-4.401118e-002 
-4.404760e-002 
-4.396325e-002 
-4.399317e-002 
-4.407050e-002 
-4.399369e-002 
-4.395455e-002 
-4.406465e-002 
-4.405376e-002 
-4.395601e-002 
-4.402889e-002 
-4.410469e-002 
-4.398942e-002 
-4.396397e-002 
-4.410562e-002 
-4.407972e-002 
-4.394404e-002 
-4.403308e-002 
-4.414715e-002 
-4.402631e-002 
-4.396366e-002 
-4.411691e-002 
-4.414277e-002 
-4.400326e-002 
-4.404262e-002 
-4.418045e-002 
-4.411414e-002 
-4.401748e-002 
-4.412326e-002 
-4.419326e-002 
-4.409605e-002 
-4.408659e-002 
-4.420929e-002 
-4.420019e-002 
-4.411215e-002 
-4.415936e-002 
-4.423503e-002 
-4.418077e-002 
-4.413863e-002 
-4.420769e-002 
-4.423417e-002 
-4.415635e-002 
-4.415407e-002 
-4.424429e-002 
-4.422631e-002 
-4.413843e-002 
-4.418172e-002 
-4.425918e-002 
-4.418469e-002 
-4.413435e-002 
-4.423253e-002 
-4.423253e-002 
1.110223e-016 
-4.761871e-002 
-4.657876e-002 
-4.580455e-002 
-4.551966e-002 
-4.659423e-002 
-4.654272e-002 
-4.594216e-002 
-4.590932e-002 
-4.655498e-002 
-4.640925e-002 
-4.573027e-002 
-4.591455e-002 
-4.700849e-002 
-4.607407e-002 
-4.528429e-002 
-4.672155e-002 
-4.672021e-002 
-4.552314e-002 
-4.596400e-002 
-4.668143e-002 
-4.611348e-002 
-4.574596e-002 
-4.618824e-002 
-4.642579e-002 
-4.604792e-002 
-4.577565e-002 
-4.618358e-002 
-4.647622e-002 
-4.597869e-002 
-4.568642e-002 
-4.633013e-002 
-4.649569e-002 
-4.564913e-002 
-4.579886e-002 
-4.668056e-002 
-4.606223e-002 
-4.541113e-002 
-4.639169e-002 
-4.655150e-002 
-4.543139e-002 
-4.581432e-002 
-4.670353e-002 
-4.585959e-002 
-4.537546e-002 
-4.639120e-002 
-4.627990e-002 
-4.545532e-002 
-4.592146e-002 
-4.635087e-002 
-4.570727e-002 
-4.582521e-002 
-4.603346e-002 
-4.593489e-002 
-4.605433e-002 
-4.568130e-002 
-4.585143e-002 
-4.627595e-002 
-4.566432e-002 
-4.547675e-002 
-4.641539e-002 
-4.601686e-002 
-4.498664e-002 
-4.605515e-002 
-4.659449e-002 
-4.505500e-002 
-4.529179e-002 
-4.673841e-002 
-4.548242e-002 
-4.485391e-002 
-4.630968e-002 
-4.598077e-002 
-4.487638e-002 
-4.559721e-002 
-4.614220e-002 
-4.532508e-002 
-4.519455e-002 
-4.566684e-002 
-4.572019e-002 
-4.530301e-002 
-4.519200e-002 
-4.553520e-002 
-4.556191e-002 
-4.518256e-002 
-4.514300e-002 
-4.544273e-002 
-4.534290e-002 
-4.500321e-002 
-4.509605e-002 
-4.535268e-002 
-4.503809e-002 
-4.481364e-002 
-4.523310e-002 
-4.514190e-002 
-4.455232e-002 
-4.491163e-002 
-4.522539e-002 
-4.436995e-002 
-4.445749e-002 
-4.548778e-002 
-4.469749e-002 
-4.354117e-002 
-4.475528e-002 
-4.545974e-002 
-4.377785e-002 
-4.347387e-002 
-4.513540e-002 
-4.474859e-002 
-4.311134e-002 
-4.395945e-002 
-4.503680e-002 
-4.364522e-002 
-4.312447e-002 
-4.439825e-002 
-4.416751e-002 
-4.322584e-002 
-4.355069e-002 
-4.396410e-002 
-4.366350e-002 
-4.311912e-002 
-4.324108e-002 
-4.420257e-002 
-4.292765e-002 
-4.268179e-002 
-4.403703e-002 
-4.302510e-002 
-4.252321e-002 
-4.322896e-002 
-4.336390e-002 
-4.215741e-002 
-4.244207e-002 
-4.340719e-002 
-4.254694e-002 
-4.195063e-002 
-4.272311e-002 
-4.286058e-002 
-4.178332e-002 
-4.203032e-002 
-4.280515e-002 
-4.224149e-002 
-4.135956e-002 
-4.225634e-002 
-4.280880e-002 
-4.168460e-002 
-4.118337e-002 
-4.224193e-002 
-4.214753e-002 
-4.126484e-002 
-4.178987e-002 
-4.209376e-002 
-4.117395e-002 
-4.114043e-002 
-4.194538e-002 
-4.157405e-002 
-4.100622e-002 
-4.138369e-002 
-4.160408e-002 
-4.092487e-002 
-4.107456e-002 
-4.168400e-002 
-4.111030e-002 
-4.057271e-002 
-4.135022e-002 
-4.156168e-002 
-4.068951e-002 
-4.066858e-002 
-4.149502e-002 
-4.124443e-002 
-4.058284e-002 
-4.093791e-002 
-4.149054e-002 
-4.096218e-002 
-4.069481e-002 
-4.129591e-002 
-4.123448e-002 
-4.068034e-002 
-4.110660e-002 
-4.143224e-002 
-4.088728e-002 
-4.090390e-002 
-4.147908e-002 
-4.129300e-002 
-4.094673e-002 
-4.138259e-002 
-4.154933e-002 
-4.111087e-002 
-4.116873e-002 
-4.155491e-002 
-4.137364e-002 
-4.114568e-002 
-4.141443e-002 
-4.161316e-002 
-4.135394e-002 
-4.125486e-002 
-4.147563e-002 
-4.149267e-002 
-4.124666e-002 
-4.122950e-002 
-4.144748e-002 
-4.144155e-002 
-4.119129e-002 
-4.122914e-002 
-4.146777e-002 
-4.133367e-002 
-4.107080e-002 
-4.126806e-002 
-4.146482e-002 
-4.114733e-002 
-4.104322e-002 
-4.137976e-002 
-4.131209e-002 
-4.091653e-002 
-4.107085e-002 
-4.133953e-002 
-4.096492e-002 
-4.076521e-002 
-4.110490e-002 
-4.107369e-002 
-4.061366e-002 
-4.072093e-002 
-4.105950e-002 
-4.079245e-002 
-4.045462e-002 
-4.078945e-002 
-4.089368e-002 
-4.024904e-002 
-4.005022e-002 
-4.035438e-002 
-4.002662e-002 
-3.957745e-002 
-4.003587e-002 
-4.045820e-002 
-4.009899e-002 
-4.007417e-002 
-4.068722e-002 
-4.055403e-002 
-3.975165e-002 
-3.982560e-002 
-4.024173e-002 
-3.973465e-002 
-3.928441e-002 
-3.979527e-002 
-3.990329e-002 
-3.920012e-002 
-3.926634e-002 
-3.990539e-002 
-3.958690e-002 
-3.904865e-002 
-3.951941e-002 
-3.978785e-002 
-3.899012e-002 
-3.867242e-002 
-3.903918e-002 
-3.848489e-002 
-3.753956e-002 
-3.739442e-002 
-3.714175e-002 
-3.623818e-002 
-3.577790e-002 
-3.581807e-002 
-3.554842e-002 
-3.534156e-002 
-3.567981e-002 
-3.603772e-002 
-3.620434e-002 
-3.668593e-002 
-3.745546e-002 
-3.801760e-002 
-3.849730e-002 
-3.928570e-002 
-4.004247e-002 
-4.050763e-002 
-4.103803e-002 
-4.172938e-002 
-4.215425e-002 
-4.237175e-002 
-4.276489e-002 
-4.315407e-002 
-4.323174e-002 
-4.331736e-002 
-4.360340e-002 
-4.370769e-002 
-4.360846e-002 
-4.373219e-002 
-4.392488e-002 
-4.380895e-002 
-4.371383e-002 
-4.390489e-002 
-4.395793e-002 
-4.374969e-002 
-4.377304e-002 
-4.395209e-002 
-4.384409e-002 
-4.369303e-002 
-4.382966e-002 
-4.388799e-002 
-4.371201e-002 
-4.369697e-002 
-4.383016e-002 
-4.375553e-002 
-4.362244e-002 
-4.372170e-002 
-4.377921e-002 
-4.363102e-002 
-4.360768e-002 
-4.373349e-002 
-4.366800e-002 
-4.354570e-002 
-4.365080e-002 
-4.372100e-002 
-4.356114e-002 
-4.353853e-002 
-4.371438e-002 
-4.365449e-002 
-4.347188e-002 
-4.360190e-002 
-4.374479e-002 
-4.351157e-002 
-4.341535e-002 
-4.369589e-002 
-4.370038e-002 
-4.337620e-002 
-4.347981e-002 
-4.379747e-002 
-4.358416e-002 
-4.332403e-002 
-4.363237e-002 
-4.379627e-002 
-4.343459e-002 
-4.337848e-002 
-4.375057e-002 
-4.370574e-002 
-4.338024e-002 
-4.352804e-002 
-4.380623e-002 
-4.362203e-002 
-4.344247e-002 
-4.367052e-002 
-4.378243e-002 
-4.359348e-002 
-4.357076e-002 
-4.373645e-002 
-4.370847e-002 
-4.361381e-002 
-4.369346e-002 
-4.374166e-002 
-4.362882e-002 
-4.363258e-002 
-4.375990e-002 
-4.371303e-002 
-4.358170e-002 
-4.367530e-002 
-4.380932e-002 
-4.369164e-002 
-4.358035e-002 
-4.372762e-002 
-4.379369e-002 
-4.362510e-002 
-4.361151e-002 
-4.377540e-002 
-4.372273e-002 
-4.361023e-002 
-4.372865e-002 
-4.377835e-002 
-4.363154e-002 
-4.368901e-002 
-4.383173e-002 
-4.368918e-002 
-4.361058e-002 
-4.382891e-002 
-4.381341e-002 
-4.358866e-002 
-4.372981e-002 
-4.392286e-002 
-4.368979e-002 
-4.360738e-002 
-4.390358e-002 
-4.387181e-002 
-4.358658e-002 
-4.375221e-002 
-4.399008e-002 
-4.375355e-002 
-4.362046e-002 
-4.390747e-002 
-4.395385e-002 
-4.368956e-002 
-4.371830e-002 
-4.392941e-002 
-4.384936e-002 
-4.369069e-002 
-4.377868e-002 
-4.387611e-002 
-4.378155e-002 
-4.371450e-002 
-4.379982e-002 
-4.386098e-002 
-4.379053e-002 
-4.374331e-002 
-4.382895e-002 
-4.387589e-002 
-4.377053e-002 
-4.375321e-002 
-4.387216e-002 
-4.386157e-002 
-4.374567e-002 
-4.381311e-002 
-4.391820e-002 
-4.384230e-002 
-4.379597e-002 
-4.389006e-002 
-4.390058e-002 
-4.382556e-002 
-4.386516e-002 
-4.392855e-002 
-4.388053e-002 
-4.387223e-002 
-4.393350e-002 
-4.392197e-002 
-4.388801e-002 
-4.393972e-002 
-4.397481e-002 
-4.394431e-002 
-4.393374e-002 
-4.398216e-002 
-4.400213e-002 
-4.397070e-002 
-4.396708e-002 
-4.401097e-002 
-4.402423e-002 
-4.400765e-002 
-4.401255e-002 
-4.403810e-002 
-4.403510e-002 
-4.402773e-002 
-4.404174e-002 
-4.403771e-002 
-4.401607e-002 
-4.403776e-002 
-4.402860e-002 
-4.399822e-002 
-4.402654e-002 
-4.403585e-002 
-4.396277e-002 
-4.397014e-002 
-4.403826e-002 
-4.399724e-002 
-4.392293e-002 
-4.397965e-002 
-4.401499e-002 
-4.393043e-002 
-4.393417e-002 
-4.401656e-002 
-4.396300e-002 
-4.391230e-002 
-4.400087e-002 
-4.402027e-002 
-4.393133e-002 
-4.396009e-002 
-4.403817e-002 
-4.397950e-002 
-4.393257e-002 
-4.401174e-002 
-4.401071e-002 
-4.394381e-002 
-4.399285e-002 
-4.404031e-002 
-4.396405e-002 
-4.395681e-002 
-4.404077e-002 
-4.402283e-002 
-4.395149e-002 
-4.400396e-002 
-4.406326e-002 
-4.399879e-002 
-4.396772e-002 
-4.406059e-002 
-4.405531e-002 
-4.396665e-002 
-4.400012e-002 
-4.409429e-002 
-4.403568e-002 
-4.396229e-002 
-4.405773e-002 
-4.413011e-002 
-4.401945e-002 
-4.399698e-002 
-4.412562e-002 
-4.412460e-002 
-4.400851e-002 
-4.407063e-002 
-4.417946e-002 
-4.410346e-002 
-4.403545e-002 
-4.415496e-002 
-4.419611e-002 
-4.409425e-002 
-4.410926e-002 
-4.422380e-002 
-4.418155e-002 
-4.411048e-002 
-4.418112e-002 
-4.422374e-002 
-4.413030e-002 
-4.413405e-002 
-4.422957e-002 
-4.419985e-002 
-4.410282e-002 
-4.416065e-002 
-4.423725e-002 
-4.415779e-002 
-4.409886e-002 
-4.409886e-002 
1.110223e-016 
-4.533486e-002 
-4.862860e-002 
-4.640637e-002 
-4.441489e-002 
-4.639198e-002 
-4.775262e-002 
-4.585657e-002 
-4.477361e-002 
-4.692340e-002 
-4.720878e-002 
-4.526078e-002 
-4.566243e-002 
-4.708348e-002 
-4.623411e-002 
-4.541058e-002 
-4.644075e-002 
-4.677289e-002 
-4.555677e-002 
-4.583747e-002 
-4.689780e-002 
-4.600446e-002 
-4.546640e-002 
-4.657358e-002 
-4.638908e-002 
-4.546626e-002 
-4.620299e-002 
-4.667471e-002 
-4.561214e-002 
-4.576018e-002 
-4.675595e-002 
-4.606321e-002 
-4.541780e-002 
-4.644842e-002 
-4.650053e-002 
-4.545266e-002 
-4.594014e-002 
-4.676043e-002 
-4.582770e-002 
-4.542043e-002 
-4.659220e-002 
-4.647683e-002 
-4.520496e-002 
-4.594096e-002 
-4.688888e-002 
-4.559031e-002 
-4.523796e-002 
-4.682999e-002 
-4.619894e-002 
-4.493227e-002 
-4.639260e-002 
-4.671723e-002 
-4.505442e-002 
-4.575538e-002 
-4.685777e-002 
-4.562541e-002 
-4.523361e-002 
-4.643689e-002 
-4.632219e-002 
-4.523059e-002 
-4.561407e-002 
-4.657450e-002 
-4.580848e-002 
-4.507935e-002 
-4.615476e-002 
-4.634026e-002 
-4.507297e-002 
-4.558357e-002 
-4.646999e-002 
-4.537916e-002 
-4.510616e-002 
-4.618313e-002 
-4.582798e-002 
-4.503950e-002 
-4.566859e-002 
-4.591459e-002 
-4.526544e-002 
-4.535030e-002 
-4.579261e-002 
-4.538215e-002 
-4.515251e-002 
-4.561861e-002 
-4.551926e-002 
-4.507858e-002 
-4.526715e-002 
-4.546119e-002 
-4.524307e-002 
-4.509446e-002 
-4.506321e-002 
-4.521039e-002 
-4.530308e-002 
-4.488741e-002 
-4.471785e-002 
-4.527645e-002 
-4.519243e-002 
-4.438293e-002 
-4.465439e-002 
-4.544577e-002 
-4.478474e-002 
-4.392133e-002 
-4.473542e-002 
-4.534590e-002 
-4.427812e-002 
-4.378788e-002 
-4.471563e-002 
-4.481450e-002 
-4.392160e-002 
-4.398302e-002 
-4.446951e-002 
-4.413289e-002 
-4.384451e-002 
-4.412090e-002 
-4.389581e-002 
-4.372729e-002 
-4.397758e-002 
-4.380286e-002 
-4.341185e-002 
-4.360960e-002 
-4.382242e-002 
-4.350078e-002 
-4.301966e-002 
-4.349100e-002 
-4.383297e-002 
-4.268894e-002 
-4.293751e-002 
-4.379794e-002 
-4.286872e-002 
-4.235341e-002 
-4.313680e-002 
-4.330456e-002 
-4.223018e-002 
-4.241030e-002 
-4.309687e-002 
-4.249340e-002 
-4.199013e-002 
-4.265066e-002 
-4.268480e-002 
-4.183705e-002 
-4.200412e-002 
-4.260265e-002 
-4.211332e-002 
-4.166908e-002 
-4.221046e-002 
-4.207160e-002 
-4.156811e-002 
-4.188705e-002 
-4.224325e-002 
-4.141282e-002 
-4.119598e-002 
-4.208907e-002 
-4.193134e-002 
-4.080090e-002 
-4.131016e-002 
-4.216371e-002 
-4.126375e-002 
-4.061057e-002 
-4.162493e-002 
-4.184903e-002 
-4.074530e-002 
-4.079563e-002 
-4.175636e-002 
-4.131161e-002 
-4.060153e-002 
-4.113482e-002 
-4.147753e-002 
-4.084536e-002 
-4.080138e-002 
-4.134663e-002 
-4.108427e-002 
-4.066164e-002 
-4.114970e-002 
-4.138763e-002 
-4.072693e-002 
-4.074062e-002 
-4.143114e-002 
-4.114741e-002 
-4.056311e-002 
-4.110947e-002 