# vtk DataFile Version 2.0
2D-ADE data file 
ASCII
DATASET RECTILINEAR_GRID
DIMENSIONS 512 128 1
X_COORDINATES 512 int
0 1 2 3 4 5 6 7 8 9 10 11 12 13 14 15 16 17 18 19 20 21 22 23 24 25 26 27 28 29 30 31 32 33 34 35 36 37 38 39 40 41 42 43 44 45 46 47 48 49 50 51 52 53 54 55 56 57 58 59 60 61 62 63 64 65 66 67 68 69 70 71 72 73 74 75 76 77 78 79 80 81 82 83 84 85 86 87 88 89 90 91 92 93 94 95 96 97 98 99 100 101 102 103 104 105 106 107 108 109 110 111 112 113 114 115 116 117 118 119 120 121 122 123 124 125 126 127 128 129 130 131 132 133 134 135 136 137 138 139 140 141 142 143 144 145 146 147 148 149 150 151 152 153 154 155 156 157 158 159 160 161 162 163 164 165 166 167 168 169 170 171 172 173 174 175 176 177 178 179 180 181 182 183 184 185 186 187 188 189 190 191 192 193 194 195 196 197 198 199 200 201 202 203 204 205 206 207 208 209 210 211 212 213 214 215 216 217 218 219 220 221 222 223 224 225 226 227 228 229 230 231 232 233 234 235 236 237 238 239 240 241 242 243 244 245 246 247 248 249 250 251 252 253 254 255 256 257 258 259 260 261 262 263 264 265 266 267 268 269 270 271 272 273 274 275 276 277 278 279 280 281 282 283 284 285 286 287 288 289 290 291 292 293 294 295 296 297 298 299 300 301 302 303 304 305 306 307 308 309 310 311 312 313 314 315 316 317 318 319 320 321 322 323 324 325 326 327 328 329 330 331 332 333 334 335 336 337 338 339 340 341 342 343 344 345 346 347 348 349 350 351 352 353 354 355 356 357 358 359 360 361 362 363 364 365 366 367 368 369 370 371 372 373 374 375 376 377 378 379 380 381 382 383 384 385 386 387 388 389 390 391 392 393 394 395 396 397 398 399 400 401 402 403 404 405 406 407 408 409 410 411 412 413 414 415 416 417 418 419 420 421 422 423 424 425 426 427 428 429 430 431 432 433 434 435 436 437 438 439 440 441 442 443 444 445 446 447 448 449 450 451 452 453 454 455 456 457 458 459 460 461 462 463 464 465 466 467 468 469 470 471 472 473 474 475 476 477 478 479 480 481 482 483 484 485 486 487 488 489 490 491 492 493 494 495 496 497 498 499 500 501 502 503 504 505 506 507 508 509 510 511 
Y_COORDINATES 128 int
0 1 2 3 4 5 6 7 8 9 10 11 12 13 14 15 16 17 18 19 20 21 22 23 24 25 26 27 28 29 30 31 32 33 34 35 36 37 38 39 40 41 42 43 44 45 46 47 48 49 50 51 52 53 54 55 56 57 58 59 60 61 62 63 64 65 66 67 68 69 70 71 72 73 74 75 76 77 78 79 80 81 82 83 84 85 86 87 88 89 90 91 92 93 94 95 96 97 98 99 100 101 102 103 104 105 106 107 108 109 110 111 112 113 114 115 116 117 118 119 120 121 122 123 124 125 126 127 
Z_COORDINATES 1 int
0
POINT_DATA 65536 
SCALARS density double 1
LOOKUP_TABLE default
-2.032857e-002 
-3.025922e-002 
-2.679955e-002 
-2.633459e-002 
-2.649842e-002 
-2.642310e-002 
-2.652056e-002 
-2.648412e-002 
-2.646797e-002 
-2.642269e-002 
-2.653028e-002 
-2.646837e-002 
-2.649732e-002 
-2.639825e-002 
-2.647866e-002 
-2.656568e-002 
-2.639111e-002 
-2.642530e-002 
-2.655948e-002 
-2.644085e-002 
-2.641156e-002 
-2.650271e-002 
-2.647030e-002 
-2.644321e-002 
-2.646099e-002 
-2.643882e-002 
-2.647796e-002 
-2.647505e-002 
-2.641068e-002 
-2.643760e-002 
-2.652152e-002 
-2.643515e-002 
-2.636312e-002 
-2.652051e-002 
-2.651674e-002 
-2.631320e-002 
-2.643866e-002 
-2.659957e-002 
-2.636307e-002 
-2.631007e-002 
-2.659538e-002 
-2.648025e-002 
-2.624033e-002 
-2.647693e-002 
-2.660629e-002 
-2.625374e-002 
-2.633100e-002 
-2.661885e-002 
-2.639068e-002 
-2.617944e-002 
-2.657959e-002 
-2.645804e-002 
-2.620599e-002 
-2.646750e-002 
-2.644654e-002 
-2.629591e-002 
-2.637815e-002 
-2.639438e-002 
-2.636124e-002 
-2.635287e-002 
-2.632957e-002 
-2.636007e-002 
-2.635612e-002 
-2.633939e-002 
-2.626825e-002 
-2.636561e-002 
-2.639031e-002 
-2.617832e-002 
-2.633436e-002 
-2.641574e-002 
-2.619763e-002 
-2.623291e-002 
-2.641389e-002 
-2.623499e-002 
-2.619309e-002 
-2.633421e-002 
-2.627638e-002 
-2.618457e-002 
-2.624700e-002 
-2.627255e-002 
-2.620813e-002 
-2.618423e-002 
-2.621908e-002 
-2.621616e-002 
-2.616778e-002 
-2.615073e-002 
-2.617118e-002 
-2.617778e-002 
-2.613169e-002 
-2.610840e-002 
-2.611894e-002 
-2.612988e-002 
-2.605094e-002 
-2.604629e-002 
-2.613728e-002 
-2.606788e-002 
-2.595105e-002 
-2.605480e-002 
-2.609246e-002 
-2.591975e-002 
-2.590810e-002 
-2.610764e-002 
-2.600982e-002 
-2.576442e-002 
-2.593089e-002 
-2.611887e-002 
-2.584336e-002 
-2.572864e-002 
-2.598232e-002 
-2.597972e-002 
-2.571719e-002 
-2.576682e-002 
-2.595864e-002 
-2.580536e-002 
-2.565974e-002 
-2.583921e-002 
-2.583158e-002 
-2.570101e-002 
-2.561702e-002 
-2.585917e-002 
-2.578433e-002 
-2.542656e-002 
-2.590029e-002 
-2.570480e-002 
-2.549309e-002 
-2.574782e-002 
-2.572975e-002 
-2.555577e-002 
-2.554084e-002 
-2.583111e-002 
-2.556399e-002 
-2.547258e-002 
-2.573203e-002 
-2.570049e-002 
-2.543623e-002 
-2.562370e-002 
-2.575358e-002 
-2.550857e-002 
-2.550153e-002 
-2.573729e-002 
-2.563742e-002 
-2.544402e-002 
-2.566474e-002 
-2.574716e-002 
-2.551794e-002 
-2.555975e-002 
-2.580137e-002 
-2.562686e-002 
-2.552907e-002 
-2.570387e-002 
-2.577006e-002 
-2.560840e-002 
-2.561791e-002 
-2.580083e-002 
-2.574963e-002 
-2.560917e-002 
-2.574031e-002 
-2.584866e-002 
-2.573961e-002 
-2.569026e-002 
-2.585321e-002 
-2.587002e-002 
-2.573563e-002 
-2.579199e-002 
-2.594570e-002 
-2.586949e-002 
-2.578111e-002 
-2.592002e-002 
-2.599772e-002 
-2.587155e-002 
-2.587195e-002 
-2.604542e-002 
-2.601739e-002 
-2.589796e-002 
-2.601984e-002 
-2.612962e-002 
-2.598929e-002 
-2.598427e-002 
-2.615898e-002 
-2.614276e-002 
-2.601309e-002 
-2.612656e-002 
-2.624408e-002 
-2.611812e-002 
-2.607457e-002 
-2.627013e-002 
-2.627411e-002 
-2.611660e-002 
-2.619598e-002 
-2.637144e-002 
-2.624138e-002 
-2.614285e-002 
-2.633087e-002 
-2.639996e-002 
-2.619928e-002 
-2.622659e-002 
-2.642709e-002 
-2.635325e-002 
-2.618136e-002 
-2.633583e-002 
-2.645423e-002 
-2.626772e-002 
-2.622114e-002 
-2.642139e-002 
-2.639059e-002 
-2.619513e-002 
-2.629684e-002 
-2.642299e-002 
-2.626888e-002 
-2.619453e-002 
-2.634661e-002 
-2.633308e-002 
-2.619158e-002 
-2.622825e-002 
-2.632317e-002 
-2.623242e-002 
-2.617064e-002 
-2.623464e-002 
-2.624647e-002 
-2.616922e-002 
-2.615243e-002 
-2.619707e-002 
-2.618758e-002 
-2.611905e-002 
-2.612253e-002 
-2.616899e-002 
-2.612930e-002 
-2.606570e-002 
-2.609036e-002 
-2.612498e-002 
-2.605182e-002 
-2.600086e-002 
-2.606262e-002 
-2.605386e-002 
-2.596456e-002 
-2.596912e-002 
-2.602076e-002 
-2.598261e-002 
-2.592074e-002 
-2.594607e-002 
-2.598392e-002 
-2.590257e-002 
-2.582858e-002 
-2.585822e-002 
-2.581548e-002 
-2.569399e-002 
-2.570123e-002 
-2.575129e-002 
-2.568544e-002 
-2.566727e-002 
-2.578432e-002 
-2.580349e-002 
-2.573798e-002 
-2.578829e-002 
-2.582928e-002 
-2.573702e-002 
-2.567912e-002 
-2.570925e-002 
-2.568081e-002 
-2.559128e-002 
-2.558451e-002 
-2.563739e-002 
-2.558716e-002 
-2.553335e-002 
-2.559138e-002 
-2.561688e-002 
-2.555720e-002 
-2.555006e-002 
-2.560516e-002 
-2.558234e-002 
-2.552838e-002 
-2.554619e-002 
-2.554862e-002 
-2.546488e-002 
-2.540832e-002 
-2.539673e-002 
-2.530578e-002 
-2.518683e-002 
-2.515092e-002 
-2.509889e-002 
-2.497222e-002 
-2.490504e-002 
-2.491252e-002 
-2.485624e-002 
-2.478085e-002 
-2.481535e-002 
-2.485926e-002 
-2.482499e-002 
-2.484794e-002 
-2.496033e-002 
-2.500487e-002 
-2.501567e-002 
-2.512533e-002 
-2.524168e-002 
-2.526704e-002 
-2.532756e-002 
-2.546819e-002 
-2.553241e-002 
-2.554428e-002 
-2.564255e-002 
-2.574293e-002 
-2.574166e-002 
-2.576834e-002 
-2.587046e-002 
-2.589864e-002 
-2.587113e-002 
-2.592742e-002 
-2.599515e-002 
-2.596354e-002 
-2.595471e-002 
-2.602552e-002 
-2.603693e-002 
-2.598893e-002 
-2.601906e-002 
-2.607191e-002 
-2.603520e-002 
-2.600887e-002 
-2.606564e-002 
-2.607684e-002 
-2.602269e-002 
-2.603907e-002 
-2.609035e-002 
-2.605702e-002 
-2.602216e-002 
-2.607085e-002 
-2.609014e-002 
-2.603691e-002 
-2.603592e-002 
-2.608868e-002 
-2.607219e-002 
-2.602421e-002 
-2.605004e-002 
-2.608370e-002 
-2.604652e-002 
-2.602160e-002 
-2.605658e-002 
-2.606754e-002 
-2.603241e-002 
-2.602861e-002 
-2.605825e-002 
-2.605273e-002 
-2.602670e-002 
-2.603400e-002 
-2.605004e-002 
-2.603516e-002 
-2.602276e-002 
-2.603508e-002 
-2.603647e-002 
-2.602576e-002 
-2.602904e-002 
-2.603339e-002 
-2.602456e-002 
-2.602767e-002 
-2.603652e-002 
-2.602271e-002 
-2.601438e-002 
-2.603341e-002 
-2.603323e-002 
-2.600644e-002 
-2.601170e-002 
-2.604150e-002 
-2.602745e-002 
-2.599938e-002 
-2.601867e-002 
-2.604244e-002 
-2.601991e-002 
-2.600007e-002 
-2.602320e-002 
-2.603523e-002 
-2.601435e-002 
-2.600798e-002 
-2.602929e-002 
-2.602842e-002 
-2.601359e-002 
-2.602157e-002 
-2.603442e-002 
-2.601990e-002 
-2.601356e-002 
-2.603016e-002 
-2.603002e-002 
-2.601022e-002 
-2.601472e-002 
-2.602981e-002 
-2.601802e-002 
-2.600564e-002 
-2.601929e-002 
-2.602483e-002 
-2.600756e-002 
-2.600875e-002 
-2.602551e-002 
-2.601873e-002 
-2.600251e-002 
-2.601457e-002 
-2.602628e-002 
-2.601188e-002 
-2.600330e-002 
-2.601951e-002 
-2.602391e-002 
-2.601034e-002 
-2.600754e-002 
-2.602223e-002 
-2.601991e-002 
-2.600885e-002 
-2.601408e-002 
-2.602212e-002 
-2.601319e-002 
-2.601169e-002 
-2.601794e-002 
-2.601517e-002 
-2.601056e-002 
-2.601312e-002 
-2.601262e-002 
-2.600743e-002 
-2.600717e-002 
-2.600683e-002 
-2.600272e-002 
-2.600129e-002 
-2.600342e-002 
-2.600146e-002 
-2.599897e-002 
-2.599985e-002 
-2.600230e-002 
-2.600193e-002 
-2.600240e-002 
-2.600038e-002 
-2.600247e-002 
-2.600682e-002 
-2.600625e-002 
-2.600397e-002 
-2.600822e-002 
-2.600953e-002 
-2.600678e-002 
-2.600677e-002 
-2.600935e-002 
-2.600736e-002 
-2.600488e-002 
-2.600635e-002 
-2.600611e-002 
-2.600427e-002 
-2.600164e-002 
-2.599904e-002 
-2.600028e-002 
-2.600126e-002 
-2.599322e-002 
-2.599166e-002 
-2.599824e-002 
-2.599654e-002 
-2.598783e-002 
-2.599278e-002 
-2.599917e-002 
-2.599239e-002 
-2.598817e-002 
-2.599903e-002 
-2.599811e-002 
-2.598921e-002 
-2.599419e-002 
-2.600184e-002 
-2.599397e-002 
-2.599046e-002 
-2.599819e-002 
-2.599834e-002 
-2.599168e-002 
-2.599186e-002 
-2.599535e-002 
-2.599409e-002 
-2.599181e-002 
-2.599244e-002 
-2.599491e-002 
-2.599653e-002 
-2.599429e-002 
-2.599457e-002 
-2.600051e-002 
-2.599867e-002 
-2.599349e-002 
-2.599870e-002 
-2.600314e-002 
-2.599776e-002 
-2.599642e-002 
-2.600126e-002 
-2.600270e-002 
-2.599692e-002 
-2.599781e-002 
-2.600220e-002 
-2.600162e-002 
-2.599955e-002 
-2.600003e-002 
-2.600188e-002 
-2.600332e-002 
-2.600198e-002 
-2.599908e-002 
-2.600328e-002 
-2.600796e-002 
-2.599989e-002 
-2.599677e-002 
-2.600684e-002 
-2.600743e-002 
-2.599455e-002 
-2.599873e-002 
-2.601386e-002 
-2.600760e-002 
-2.599559e-002 
-2.600667e-002 
-2.601683e-002 
-2.600277e-002 
-2.599722e-002 
-2.600859e-002 
-2.600997e-002 
-2.599535e-002 
-2.599716e-002 
-2.600586e-002 
-2.601037e-002 
-2.027602e-002 
1.110223e-016 
-4.771027e-002 
-4.149908e-002 
-4.456130e-002 
-4.806575e-002 
-4.570226e-002 
-4.389300e-002 
-4.588963e-002 
-4.684427e-002 
-4.478551e-002 
-4.475272e-002 
-4.667038e-002 
-4.588741e-002 
-4.440770e-002 
-4.564059e-002 
-4.645375e-002 
-4.520041e-002 
-4.479510e-002 
-4.618556e-002 
-4.589419e-002 
-4.464502e-002 
-4.555689e-002 
-4.630114e-002 
-4.505926e-002 
-4.493349e-002 
-4.606391e-002 
-4.562032e-002 
-4.486567e-002 
-4.564893e-002 
-4.585337e-002 
-4.495778e-002 
-4.528131e-002 
-4.601757e-002 
-4.524273e-002 
-4.492522e-002 
-4.581392e-002 
-4.560373e-002 
-4.485599e-002 
-4.552096e-002 
-4.585574e-002 
-4.487946e-002 
-4.500824e-002 
-4.602227e-002 
-4.530853e-002 
-4.441730e-002 
-4.567417e-002 
-4.592937e-002 
-4.438280e-002 
-4.488080e-002 
-4.619138e-002 
-4.463649e-002 
-4.431946e-002 
-4.613015e-002 
-4.509309e-002 
-4.403270e-002 
-4.548115e-002 
-4.555547e-002 
-4.418392e-002 
-4.469188e-002 
-4.566997e-002 
-4.476075e-002 
-4.399404e-002 
-4.511432e-002 
-4.537149e-002 
-4.418120e-002 
-4.428199e-002 
-4.521708e-002 
-4.474016e-002 
-4.385241e-002 
-4.481175e-002 
-4.510084e-002 
-4.379858e-002 
-4.414784e-002 
-4.516954e-002 
-4.424500e-002 
-4.365416e-002 
-4.458920e-002 
-4.459539e-002 
-4.382466e-002 
-4.392667e-002 
-4.433934e-002 
-4.408100e-002 
-4.376354e-002 
-4.390188e-002 
-4.394588e-002 
-4.370287e-002 
-4.360718e-002 
-4.364507e-002 
-4.369300e-002 
-4.358846e-002 
-4.335123e-002 
-4.321478e-002 
-4.324048e-002 
-4.307262e-002 
-4.309524e-002 
-4.354692e-002 
-4.323951e-002 
-4.216254e-002 
-4.227754e-002 
-4.338811e-002 
-4.327129e-002 
-4.209210e-002 
-4.183848e-002 
-4.259313e-002 
-4.291515e-002 
-4.232549e-002 
-4.159287e-002 
-4.183429e-002 
-4.259023e-002 
-4.223475e-002 
-4.115215e-002 
-4.141117e-002 
-4.233887e-002 
-4.167484e-002 
-4.069573e-002 
-4.160212e-002 
-4.201070e-002 
-4.057938e-002 
-4.058743e-002 
-4.183308e-002 
-4.151844e-002 
-3.978589e-002 
-4.049004e-002 
-4.233361e-002 
-4.038376e-002 
-3.939682e-002 
-4.137427e-002 
-4.142144e-002 
-3.949478e-002 
-4.017284e-002 
-4.167105e-002 
-4.008534e-002 
-3.939953e-002 
-4.116318e-002 
-4.102939e-002 
-3.930012e-002 
-4.023554e-002 
-4.137821e-002 
-3.993843e-002 
-3.947139e-002 
-4.102944e-002 
-4.092892e-002 
-3.952365e-002 
-4.019020e-002 
-4.139411e-002 
-4.043849e-002 
-3.989301e-002 
-4.097222e-002 
-4.098835e-002 
-4.018886e-002 
-4.057383e-002 
-4.127392e-002 
-4.091486e-002 
-4.052682e-002 
-4.113011e-002 
-4.137520e-002 
-4.080697e-002 
-4.101461e-002 
-4.173719e-002 
-4.154616e-002 
-4.105069e-002 
-4.154006e-002 
-4.202751e-002 
-4.157147e-002 
-4.151947e-002 
-4.218704e-002 
-4.214525e-002 
-4.175093e-002 
-4.222607e-002 
-4.261626e-002 
-4.215834e-002 
-4.224644e-002 
-4.297183e-002 
-4.281291e-002 
-4.238020e-002 
-4.302942e-002 
-4.339830e-002 
-4.272276e-002 
-4.288093e-002 
-4.382700e-002 
-4.356103e-002 
-4.293371e-002 
-4.366794e-002 
-4.422209e-002 
-4.339862e-002 
-4.337036e-002 
-4.455585e-002 
-4.442028e-002 
-4.338386e-002 
-4.404149e-002 
-4.506680e-002 
-4.419380e-002 
-4.361655e-002 
-4.487832e-002 
-4.516731e-002 
-4.387994e-002 
-4.412507e-002 
-4.544504e-002 
-4.483175e-002 
-4.376244e-002 
-4.479810e-002 
-4.550730e-002 
-4.430116e-002 
-4.403324e-002 
-4.526548e-002 
-4.501867e-002 
-4.385084e-002 
-4.447548e-002 
-4.525129e-002 
-4.427623e-002 
-4.382046e-002 
-4.475004e-002 
-4.473422e-002 
-4.379105e-002 
-4.400685e-002 
-4.465846e-002 
-4.410972e-002 
-4.358372e-002 
-4.407735e-002 
-4.423975e-002 
-4.363741e-002 
-4.348427e-002 
-4.392866e-002 
-4.385306e-002 
-4.330089e-002 
-4.337466e-002 
-4.375301e-002 
-4.342985e-002 
-4.296464e-002 
-4.322036e-002 
-4.343693e-002 
-4.290065e-002 
-4.261017e-002 
-4.303966e-002 
-4.298164e-002 
-4.240285e-002 
-4.247488e-002 
-4.282742e-002 
-4.253811e-002 
-4.217731e-002 
-4.239276e-002 
-4.245135e-002 
-4.188637e-002 
-4.150639e-002 
-4.159855e-002 
-4.127212e-002 
-4.072060e-002 
-4.087455e-002 
-4.116157e-002 
-4.089890e-002 
-4.098574e-002 
-4.164510e-002 
-4.170500e-002 
-4.129290e-002 
-4.140403e-002 
-4.145662e-002 
-4.086428e-002 
-4.054627e-002 
-4.076916e-002 
-4.064135e-002 
-4.018283e-002 
-4.019523e-002 
-4.042490e-002 
-4.018843e-002 
-3.999392e-002 
-4.030122e-002 
-4.038028e-002 
-4.004664e-002 
-4.008064e-002 
-4.034888e-002 
-4.012318e-002 
-3.982135e-002 
-3.991558e-002 
-3.975998e-002 
-3.918717e-002 
-3.888714e-002 
-3.872393e-002 
-3.807396e-002 
-3.738761e-002 
-3.718864e-002 
-3.684506e-002 
-3.611040e-002 
-3.582115e-002 
-3.595338e-002 
-3.566577e-002 
-3.531213e-002 
-3.561638e-002 
-3.597702e-002 
-3.587649e-002 
-3.608756e-002 
-3.681907e-002 
-3.718369e-002 
-3.726924e-002 
-3.790365e-002 
-3.865583e-002 
-3.884950e-002 
-3.917012e-002 
-3.998246e-002 
-4.039151e-002 
-4.040375e-002 
-4.091600e-002 
-4.153016e-002 
-4.150201e-002 
-4.156312e-002 
-4.215304e-002 
-4.234814e-002 
-4.211542e-002 
-4.240643e-002 
-4.283481e-002 
-4.261951e-002 
-4.250333e-002 
-4.295724e-002 
-4.304174e-002 
-4.268709e-002 
-4.286021e-002 
-4.322825e-002 
-4.296411e-002 
-4.275581e-002 
-4.316074e-002 
-4.326227e-002 
-4.284371e-002 
-4.291003e-002 
-4.331755e-002 
-4.313606e-002 
-4.281631e-002 
-4.311044e-002 
-4.332361e-002 
-4.296838e-002 
-4.288980e-002 
-4.326108e-002 
-4.319156e-002 
-4.282370e-002 
-4.299852e-002 
-4.328408e-002 
-4.298852e-002 
-4.277247e-002 
-4.311174e-002 
-4.320510e-002 
-4.283994e-002 
-4.285474e-002 
-4.318610e-002 
-4.304674e-002 
-4.275355e-002 
-4.296209e-002 
-4.314549e-002 
-4.284816e-002 
-4.274411e-002 
-4.305436e-002 
-4.305074e-002 
-4.274503e-002 
-4.282328e-002 
-4.307301e-002 
-4.293063e-002 
-4.275982e-002 
-4.291669e-002 
-4.297939e-002 
-4.281094e-002 
-4.282509e-002 
-4.294248e-002 
-4.283893e-002 
-4.276842e-002 
-4.293328e-002 
-4.294212e-002 
-4.273966e-002 
-4.278643e-002 
-4.300000e-002 
-4.289867e-002 
-4.269080e-002 
-4.282509e-002 
-4.299374e-002 
-4.283665e-002 
-4.273057e-002 
-4.291837e-002 
-4.295695e-002 
-4.276717e-002 
-4.281918e-002 
-4.301527e-002 
-4.287752e-002 
-4.269295e-002 
-4.289658e-002 
-4.302814e-002 
-4.276795e-002 
-4.269028e-002 
-4.294388e-002 
-4.292368e-002 
-4.269619e-002 
-4.279184e-002 
-4.294583e-002 
-4.278121e-002 
-4.270935e-002 
-4.290489e-002 
-4.289377e-002 
-4.269829e-002 
-4.276680e-002 
-4.292521e-002 
-4.282310e-002 
-4.271866e-002 
-4.282959e-002 
-4.287875e-002 
-4.278663e-002 
-4.278557e-002 
-4.285466e-002 
-4.282333e-002 
-4.278218e-002 
-4.283095e-002 
-4.284642e-002 
-4.278751e-002 
-4.279112e-002 
-4.283883e-002 
-4.281552e-002 
-4.277405e-002 
-4.278556e-002 
-4.278970e-002 
-4.276709e-002 
-4.275615e-002 
-4.275059e-002 
-4.273943e-002 
-4.273013e-002 
-4.272673e-002 
-4.273581e-002 
-4.274120e-002 
-4.271472e-002 
-4.271806e-002 
-4.277001e-002 
-4.275967e-002 
-4.269753e-002 
-4.273875e-002 
-4.281511e-002 
-4.277348e-002 
-4.272962e-002 
-4.278942e-002 
-4.280303e-002 
-4.275067e-002 
-4.276797e-002 
-4.279818e-002 
-4.275927e-002 
-4.274434e-002 
-4.277089e-002 
-4.275803e-002 
-4.273370e-002 
-4.273569e-002 
-4.271761e-002 
-4.270288e-002 
-4.272403e-002 
-4.270860e-002 
-4.266517e-002 
-4.268644e-002 
-4.271831e-002 
-4.268663e-002 
-4.267192e-002 
-4.269999e-002 
-4.270206e-002 
-4.269110e-002 
-4.270157e-002 
-4.269955e-002 
-4.269589e-002 
-4.271369e-002 
-4.271117e-002 
-4.268739e-002 
-4.270249e-002 
-4.271996e-002 
-4.269215e-002 
-4.267909e-002 
-4.270236e-002 
-4.269271e-002 
-4.267718e-002 
-4.270336e-002 
-4.270655e-002 
-4.268250e-002 
-4.270798e-002 
-4.273251e-002 
-4.270569e-002 
-4.270580e-002 
-4.273793e-002 
-4.271955e-002 
-4.270416e-002 
-4.274346e-002 
-4.274500e-002 
-4.270141e-002 
-4.271763e-002 
-4.275806e-002 
-4.273206e-002 
-4.270491e-002 
-4.273915e-002 
-4.275900e-002 
-4.273564e-002 
-4.272534e-002 
-4.274200e-002 
-4.275806e-002 
-4.275012e-002 
-4.273103e-002 
-4.274715e-002 
-4.277663e-002 
-4.274438e-002 
-4.270910e-002 
-4.275753e-002 
-4.278506e-002 
-4.271964e-002 
-4.272301e-002 
-4.282000e-002 
-4.279957e-002 
-4.270299e-002 
-4.276090e-002 
-4.285074e-002 
-4.275870e-002 
-4.268688e-002 
-4.277936e-002 
-4.280239e-002 
-4.270140e-002 
-4.271101e-002 
-4.278443e-002 
-4.278443e-002 
1.110223e-016 
-4.680299e-002 
-4.606123e-002 
-4.530541e-002 
-4.461382e-002 
-4.600069e-002 
-4.613389e-002 
-4.511461e-002 
-4.520665e-002 
-4.619716e-002 
-4.567709e-002 
-4.496801e-002 
-4.544341e-002 
-4.637567e-002 
-4.534552e-002 
-4.465878e-002 
-4.615925e-002 
-4.606376e-002 
-4.470622e-002 
-4.541596e-002 
-4.617467e-002 
-4.527363e-002 
-4.505180e-002 
-4.574509e-002 
-4.569822e-002 
-4.523295e-002 
-4.526181e-002 
-4.562600e-002 
-4.559079e-002 
-4.525350e-002 
-4.522300e-002 
-4.563762e-002 
-4.563546e-002 
-4.502093e-002 
-4.524248e-002 
-4.595247e-002 
-4.528674e-002 
-4.476046e-002 
-4.580646e-002 
-4.580823e-002 
-4.460347e-002 
-4.525142e-002 
-4.609879e-002 
-4.491131e-002 
-4.463268e-002 
-4.601129e-002 
-4.541908e-002 
-4.436778e-002 
-4.541221e-002 
-4.579635e-002 
-4.446438e-002 
-4.499960e-002 
-4.555963e-002 
-4.473004e-002 
-4.500449e-002 
-4.513189e-002 
-4.475870e-002 
-4.505605e-002 
-4.495383e-002 
-4.460888e-002 
-4.496439e-002 
-4.498930e-002 
-4.445136e-002 
-4.457942e-002 
-4.523418e-002 
-4.446591e-002 
-4.402374e-002 
-4.525211e-002 
-4.473425e-002 
-4.375871e-002 
-4.476996e-002 
-4.502623e-002 
-4.385903e-002 
-4.424442e-002 
-4.486611e-002 
-4.417346e-002 
-4.395513e-002 
-4.445348e-002 
-4.432569e-002 
-4.389508e-002 
-4.402327e-002 
-4.424093e-002 
-4.396423e-002 
-4.369261e-002 
-4.386906e-002 
-4.393774e-002 
-4.364507e-002 
-4.350097e-002 
-4.370304e-002 
-4.366792e-002 
-4.333905e-002 
-4.311608e-002 
-4.336003e-002 
-4.340658e-002 
-4.300529e-002 
-4.307145e-002 
-4.325810e-002 
-4.258834e-002 
-4.241762e-002 
-4.328704e-002 
-4.306579e-002 
-4.170917e-002 
-4.218265e-002 
-4.352776e-002 
-4.231397e-002 
-4.100881e-002 
-4.253464e-002 
-4.317981e-002 
-4.129379e-002 
-4.103388e-002 
-4.270643e-002 
-4.219214e-002 
-4.051638e-002 
-4.152056e-002 
-4.257414e-002 
-4.094200e-002 
-4.037119e-002 
-4.177549e-002 
-4.204237e-002 
-3.993943e-002 
-4.048588e-002 
-4.250844e-002 
-4.004520e-002 
-4.006869e-002 
-4.176126e-002 
-4.070802e-002 
-3.970004e-002 
-4.089489e-002 
-4.139048e-002 
-3.955808e-002 
-4.020317e-002 
-4.136566e-002 
-4.012539e-002 
-3.957870e-002 
-4.108092e-002 
-4.068526e-002 
-3.949217e-002 
-4.042145e-002 
-4.105675e-002 
-3.986860e-002 
-3.988027e-002 
-4.104295e-002 
-4.040770e-002 
-3.971548e-002 
-4.083415e-002 
-4.107774e-002 
-3.996797e-002 
-4.041740e-002 
-4.117690e-002 
-4.056683e-002 
-4.021322e-002 
-4.111798e-002 
-4.134295e-002 
-4.045082e-002 
-4.063631e-002 
-4.159361e-002 
-4.126738e-002 
-4.068189e-002 
-4.134605e-002 
-4.193974e-002 
-4.125931e-002 
-4.107166e-002 
-4.197650e-002 
-4.206986e-002 
-4.134440e-002 
-4.172799e-002 
-4.253255e-002 
-4.210007e-002 
-4.164432e-002 
-4.246728e-002 
-4.287071e-002 
-4.208555e-002 
-4.223700e-002 
-4.329155e-002 
-4.296403e-002 
-4.224445e-002 
-4.308224e-002 
-4.366144e-002 
-4.283902e-002 
-4.285353e-002 
-4.398352e-002 
-4.380498e-002 
-4.294043e-002 
-4.358752e-002 
-4.438837e-002 
-4.365654e-002 
-4.345526e-002 
-4.453763e-002 
-4.449987e-002 
-4.345946e-002 
-4.408420e-002 
-4.515170e-002 
-4.434019e-002 
-4.363639e-002 
-4.486656e-002 
-4.527369e-002 
-4.403649e-002 
-4.411307e-002 
-4.541968e-002 
-4.489155e-002 
-4.383030e-002 
-4.475132e-002 
-4.548990e-002 
-4.430577e-002 
-4.397551e-002 
-4.519869e-002 
-4.498438e-002 
-4.385848e-002 
-4.439462e-002 
-4.513182e-002 
-4.427406e-002 
-4.381468e-002 
-4.461162e-002 
-4.466106e-002 
-4.384471e-002 
-4.394850e-002 
-4.445753e-002 
-4.410794e-002 
-4.363827e-002 
-4.389692e-002 
-4.410815e-002 
-4.369622e-002 
-4.343349e-002 
-4.377525e-002 
-4.381433e-002 
-4.331980e-002 
-4.326897e-002 
-4.362682e-002 
-4.341879e-002 
-4.287943e-002 
-4.306858e-002 
-4.336005e-002 
-4.284451e-002 
-4.252188e-002 
-4.292404e-002 
-4.293947e-002 
-4.237831e-002 
-4.234654e-002 
-4.277978e-002 
-4.259645e-002 
-4.205865e-002 
-4.215534e-002 
-4.229039e-002 
-4.159028e-002 
-4.111284e-002 
-4.132991e-002 
-4.106314e-002 
-4.050347e-002 
-4.078791e-002 
-4.124880e-002 
-4.098568e-002 
-4.105567e-002 
-4.171671e-002 
-4.164331e-002 
-4.111101e-002 
-4.118788e-002 
-4.123409e-002 
-4.063882e-002 
-4.034587e-002 
-4.064012e-002 
-4.054312e-002 
-4.001774e-002 
-4.008361e-002 
-4.044645e-002 
-4.022075e-002 
-3.995986e-002 
-4.027465e-002 
-4.042097e-002 
-4.005749e-002 
-4.003103e-002 
-4.032638e-002 
-4.011291e-002 
-3.967152e-002 
-3.965688e-002 
-3.949187e-002 
-3.881657e-002 
-3.839757e-002 
-3.822574e-002 
-3.756460e-002 
-3.683179e-002 
-3.667284e-002 
-3.643629e-002 
-3.576383e-002 
-3.551443e-002 
-3.573996e-002 
-3.556256e-002 
-3.531227e-002 
-3.573101e-002 
-3.617372e-002 
-3.612768e-002 
-3.643069e-002 
-3.721473e-002 
-3.758716e-002 
-3.773493e-002 
-3.841519e-002 
-3.911322e-002 
-3.927183e-002 
-3.962397e-002 
-4.038077e-002 
-4.070643e-002 
-4.074134e-002 
-4.124788e-002 
-4.175671e-002 
-4.170544e-002 
-4.181446e-002 
-4.234337e-002 
-4.247140e-002 
-4.226977e-002 
-4.255047e-002 
-4.291429e-002 
-4.272726e-002 
-4.263142e-002 
-4.301169e-002 
-4.308324e-002 
-4.279135e-002 
-4.292149e-002 
-4.322192e-002 
-4.302624e-002 
-4.285365e-002 
-4.315049e-002 
-4.322389e-002 
-4.291426e-002 
-4.297776e-002 
-4.326906e-002 
-4.310129e-002 
-4.287332e-002 
-4.312150e-002 
-4.326481e-002 
-4.297308e-002 
-4.291909e-002 
-4.322466e-002 
-4.318757e-002 
-4.288997e-002 
-4.299128e-002 
-4.324780e-002 
-4.308562e-002 
-4.286165e-002 
-4.304418e-002 
-4.320557e-002 
-4.299254e-002 
-4.287382e-002 
-4.307040e-002 
-4.311503e-002 
-4.290946e-002 
-4.289289e-002 
-4.305403e-002 
-4.300668e-002 
-4.286403e-002 
-4.291507e-002 
-4.300437e-002 
-4.293976e-002 
-4.289233e-002 
-4.292174e-002 
-4.292746e-002 
-4.293208e-002 
-4.294307e-002 
-4.287248e-002 
-4.284640e-002 
-4.294117e-002 
-4.293608e-002 
-4.278890e-002 
-4.281169e-002 
-4.296909e-002 
-4.291918e-002 
-4.274733e-002 
-4.281764e-002 
-4.298702e-002 
-4.290196e-002 
-4.274986e-002 
-4.284104e-002 
-4.297112e-002 
-4.288570e-002 
-4.279799e-002 
-4.288106e-002 
-4.293256e-002 
-4.285495e-002 
-4.284708e-002 
-4.291875e-002 
-4.288067e-002 
-4.280905e-002 
-4.287209e-002 
-4.291850e-002 
-4.282794e-002 
-4.279608e-002 
-4.287990e-002 
-4.287385e-002 
-4.279175e-002 
-4.282004e-002 
-4.286804e-002 
-4.280043e-002 
-4.277412e-002 
-4.285746e-002 
-4.283816e-002 
-4.273550e-002 
-4.278083e-002 
-4.287245e-002 
-4.279482e-002 
-4.271907e-002 
-4.281144e-002 
-4.286126e-002 
-4.276234e-002 
-4.274829e-002 
-4.284141e-002 
-4.283034e-002 
-4.276027e-002 
-4.279249e-002 
-4.282340e-002 
-4.277175e-002 
-4.275423e-002 
-4.279097e-002 
-4.278381e-002 
-4.274809e-002 
-4.274844e-002 
-4.275355e-002 
-4.274049e-002 
-4.273353e-002 
-4.272025e-002 
-4.270658e-002 
-4.271793e-002 
-4.272288e-002 
-4.271425e-002 
-4.272102e-002 
-4.272798e-002 
-4.272571e-002 
-4.274560e-002 
-4.275831e-002 
-4.273731e-002 
-4.273963e-002 
-4.277691e-002 
-4.278022e-002 
-4.275276e-002 
-4.276527e-002 
-4.279146e-002 
-4.277789e-002 
-4.276999e-002 
-4.278225e-002 
-4.276334e-002 
-4.274376e-002 
-4.274740e-002 
-4.274870e-002 
-4.272852e-002 
-4.270008e-002 
-4.269510e-002 
-4.272654e-002 
-4.272041e-002 
-4.267899e-002 
-4.269180e-002 
-4.273879e-002 
-4.271022e-002 
-4.267020e-002 
-4.271331e-002 
-4.274286e-002 
-4.268695e-002 
-4.268779e-002 
-4.274768e-002 
-4.272880e-002 
-4.268120e-002 
-4.272324e-002 
-4.275595e-002 
-4.270771e-002 
-4.269096e-002 
-4.273582e-002 
-4.273457e-002 
-4.269704e-002 
-4.270611e-002 
-4.273555e-002 
-4.272675e-002 
-4.270839e-002 
-4.272005e-002 
-4.274040e-002 
-4.273399e-002 
-4.271493e-002 
-4.272981e-002 
-4.275030e-002 
-4.272818e-002 
-4.271693e-002 
-4.274758e-002 
-4.276097e-002 
-4.273776e-002 
-4.272659e-002 
-4.275180e-002 
-4.275874e-002 
-4.273732e-002 
-4.273450e-002 
-4.275354e-002 
-4.276366e-002 
-4.275109e-002 
-4.273775e-002 
-4.275393e-002 
-4.277680e-002 
-4.275287e-002 
-4.272795e-002 
-4.277391e-002 
-4.280640e-002 
-4.275452e-002 
-4.273493e-002 
-4.280843e-002 
-4.281794e-002 
-4.274050e-002 
-4.275654e-002 
-4.284166e-002 
-4.280939e-002 
-4.273214e-002 
-4.278526e-002 
-4.284792e-002 
-4.278222e-002 
-4.272853e-002 
-4.280212e-002 
-4.282675e-002 
-4.274559e-002 
-4.272924e-002 
-4.272924e-002 
1.110223e-016 
-4.471545e-002 
-4.805766e-002 
-4.557783e-002 
-4.383728e-002 
-4.602373e-002 
-4.688001e-002 
-4.511411e-002 
-4.447711e-002 
-4.622460e-002 
-4.633169e-002 
-4.484939e-002 
-4.518304e-002 
-4.626617e-002 
-4.554453e-002 
-4.497327e-002 
-4.577499e-002 
-4.597324e-002 
-4.500600e-002 
-4.527006e-002 
-4.611807e-002 
-4.535897e-002 
-4.489475e-002 
-4.589426e-002 
-4.570799e-002 
-4.486579e-002 
-4.549561e-002 
-4.596961e-002 
-4.499677e-002 
-4.508123e-002 
-4.602069e-002 
-4.538451e-002 
-4.471199e-002 
-4.579420e-002 
-4.584105e-002 
-4.467599e-002 
-4.524450e-002 
-4.617938e-002 
-4.502786e-002 
-4.464380e-002 
-4.599760e-002 
-4.573124e-002 
-4.430920e-002 
-4.533813e-002 
-4.630622e-002 
-4.463293e-002 
-4.434694e-002 
-4.638397e-002 
-4.542505e-002 
-4.374486e-002 
-4.570466e-002 
-4.612237e-002 
-4.384633e-002 
-4.483690e-002 
-4.620271e-002 
-4.444463e-002 
-4.420682e-002 
-4.571699e-002 
-4.516733e-002 
-4.403420e-002 
-4.481235e-002 
-4.552739e-002 
-4.450669e-002 
-4.407155e-002 
-4.507899e-002 
-4.514430e-002 
-4.401183e-002 
-4.432444e-002 
-4.527719e-002 
-4.444815e-002 
-4.379540e-002 
-4.496240e-002 
-4.481519e-002 
-4.374768e-002 
-4.436020e-002 
-4.488034e-002 
-4.404526e-002 
-4.389922e-002 
-4.447164e-002 
-4.432845e-002 
-4.385400e-002 
-4.393132e-002 
-4.414599e-002 
-4.396909e-002 
-4.373347e-002 
-4.373536e-002 
-4.380416e-002 
-4.376325e-002 
-4.351014e-002 
-4.337384e-002 
-4.358678e-002 
-4.350151e-002 
-4.308201e-002 
-4.324938e-002 
-4.348097e-002 
-4.282109e-002 
-4.260112e-002 
-4.343047e-002 
-4.320490e-002 
-4.202882e-002 
-4.233782e-002 
-4.334570e-002 
-4.267259e-002 
-4.170169e-002 
-4.222937e-002 
-4.275270e-002 
-4.216542e-002 
-4.171577e-002 
-4.191440e-002 
-4.199744e-002 
-4.188136e-002 
-4.171983e-002 
-4.137654e-002 
-4.145371e-002 
-4.176859e-002 
-4.134544e-002 
-4.084237e-002 
-4.136274e-002 
-4.148326e-002 
-4.077034e-002 
-4.039098e-002 
-4.157004e-002 
-4.126680e-002 
-3.956936e-002 
-4.086405e-002 
-4.174552e-002 
-4.005291e-002 
-3.962246e-002 
-4.142048e-002 
-4.098716e-002 
-3.923064e-002 
-4.046607e-002 
-4.142811e-002 
-3.980802e-002 
-3.951672e-002 
-4.123380e-002 
-4.064138e-002 
-3.925030e-002 
-4.048669e-002 
-4.124219e-002 
-3.974297e-002 
-3.964496e-002 
-4.116064e-002 
-4.081347e-002 
-3.950538e-002 
-4.055230e-002 
-4.138816e-002 
-4.017609e-002 
-3.998652e-002 
-4.115253e-002 
-4.113186e-002 
-4.025784e-002 
-4.063064e-002 
-4.147269e-002 
-4.095451e-002 
-4.048843e-002 
-4.135175e-002 
-4.164453e-002 
-4.090209e-002 
-4.107424e-002 
-4.194543e-002 
-4.167735e-002 
-4.106443e-002 
-4.177351e-002 
-4.233193e-002 
-4.164584e-002 
-4.160650e-002 
-4.249098e-002 
-4.241395e-002 
-4.182423e-002 
-4.238261e-002 
-4.291465e-002 
-4.237207e-002 
-4.239282e-002 
-4.323323e-002 
-4.300953e-002 
-4.246569e-002 
-4.318407e-002 