# vtk DataFile Version 2.0
2D-ADE data file 
ASCII
DATASET RECTILINEAR_GRID
DIMENSIONS 512 128 1
X_COORDINATES 512 int
0 1 2 3 4 5 6 7 8 9 10 11 12 13 14 15 16 17 18 19 20 21 22 23 24 25 26 27 28 29 30 31 32 33 34 35 36 37 38 39 40 41 42 43 44 45 46 47 48 49 50 51 52 53 54 55 56 57 58 59 60 61 62 63 64 65 66 67 68 69 70 71 72 73 74 75 76 77 78 79 80 81 82 83 84 85 86 87 88 89 90 91 92 93 94 95 96 97 98 99 100 101 102 103 104 105 106 107 108 109 110 111 112 113 114 115 116 117 118 119 120 121 122 123 124 125 126 127 128 129 130 131 132 133 134 135 136 137 138 139 140 141 142 143 144 145 146 147 148 149 150 151 152 153 154 155 156 157 158 159 160 161 162 163 164 165 166 167 168 169 170 171 172 173 174 175 176 177 178 179 180 181 182 183 184 185 186 187 188 189 190 191 192 193 194 195 196 197 198 199 200 201 202 203 204 205 206 207 208 209 210 211 212 213 214 215 216 217 218 219 220 221 222 223 224 225 226 227 228 229 230 231 232 233 234 235 236 237 238 239 240 241 242 243 244 245 246 247 248 249 250 251 252 253 254 255 256 257 258 259 260 261 262 263 264 265 266 267 268 269 270 271 272 273 274 275 276 277 278 279 280 281 282 283 284 285 286 287 288 289 290 291 292 293 294 295 296 297 298 299 300 301 302 303 304 305 306 307 308 309 310 311 312 313 314 315 316 317 318 319 320 321 322 323 324 325 326 327 328 329 330 331 332 333 334 335 336 337 338 339 340 341 342 343 344 345 346 347 348 349 350 351 352 353 354 355 356 357 358 359 360 361 362 363 364 365 366 367 368 369 370 371 372 373 374 375 376 377 378 379 380 381 382 383 384 385 386 387 388 389 390 391 392 393 394 395 396 397 398 399 400 401 402 403 404 405 406 407 408 409 410 411 412 413 414 415 416 417 418 419 420 421 422 423 424 425 426 427 428 429 430 431 432 433 434 435 436 437 438 439 440 441 442 443 444 445 446 447 448 449 450 451 452 453 454 455 456 457 458 459 460 461 462 463 464 465 466 467 468 469 470 471 472 473 474 475 476 477 478 479 480 481 482 483 484 485 486 487 488 489 490 491 492 493 494 495 496 497 498 499 500 501 502 503 504 505 506 507 508 509 510 511 
Y_COORDINATES 128 int
0 1 2 3 4 5 6 7 8 9 10 11 12 13 14 15 16 17 18 19 20 21 22 23 24 25 26 27 28 29 30 31 32 33 34 35 36 37 38 39 40 41 42 43 44 45 46 47 48 49 50 51 52 53 54 55 56 57 58 59 60 61 62 63 64 65 66 67 68 69 70 71 72 73 74 75 76 77 78 79 80 81 82 83 84 85 86 87 88 89 90 91 92 93 94 95 96 97 98 99 100 101 102 103 104 105 106 107 108 109 110 111 112 113 114 115 116 117 118 119 120 121 122 123 124 125 126 127 
Z_COORDINATES 1 int
0
POINT_DATA 65536 
SCALARS density double 1
LOOKUP_TABLE default
-2.166866e-002 
-3.153146e-002 
-2.807150e-002 
-2.763629e-002 
-2.774936e-002 
-2.768374e-002 
-2.781881e-002 
-2.774055e-002 
-2.771486e-002 
-2.771276e-002 
-2.778188e-002 
-2.770790e-002 
-2.778039e-002 
-2.765758e-002 
-2.773300e-002 
-2.782646e-002 
-2.764822e-002 
-2.769562e-002 
-2.780846e-002 
-2.771078e-002 
-2.768449e-002 
-2.774652e-002 
-2.773771e-002 
-2.771522e-002 
-2.772443e-002 
-2.770004e-002 
-2.774387e-002 
-2.774843e-002 
-2.766803e-002 
-2.769911e-002 
-2.780540e-002 
-2.769487e-002 
-2.761974e-002 
-2.779638e-002 
-2.779062e-002 
-2.757802e-002 
-2.771416e-002 
-2.786618e-002 
-2.762715e-002 
-2.760086e-002 
-2.786990e-002 
-2.774712e-002 
-2.753538e-002 
-2.776857e-002 
-2.787094e-002 
-2.756849e-002 
-2.764784e-002 
-2.787792e-002 
-2.769239e-002 
-2.754477e-002 
-2.785239e-002 
-2.774323e-002 
-2.757776e-002 
-2.777055e-002 
-2.773955e-002 
-2.765922e-002 
-2.770636e-002 
-2.770736e-002 
-2.770321e-002 
-2.772886e-002 
-2.765769e-002 
-2.767685e-002 
-2.778975e-002 
-2.765784e-002 
-2.761272e-002 
-2.778598e-002 
-2.773824e-002 
-2.754585e-002 
-2.775072e-002 
-2.775800e-002 
-2.758779e-002 
-2.767407e-002 
-2.773230e-002 
-2.765220e-002 
-2.763825e-002 
-2.768482e-002 
-2.766530e-002 
-2.767078e-002 
-2.763010e-002 
-2.764346e-002 
-2.768602e-002 
-2.765029e-002 
-2.758916e-002 
-2.765188e-002 
-2.769417e-002 
-2.759661e-002 
-2.757618e-002 
-2.768447e-002 
-2.765778e-002 
-2.753548e-002 
-2.761195e-002 
-2.771238e-002 
-2.756301e-002 
-2.751916e-002 
-2.771919e-002 
-2.759777e-002 
-2.743018e-002 
-2.765592e-002 
-2.769756e-002 
-2.740108e-002 
-2.751646e-002 
-2.775732e-002 
-2.748885e-002 
-2.735317e-002 
-2.767546e-002 
-2.767021e-002 
-2.734134e-002 
-2.744652e-002 
-2.768806e-002 
-2.750094e-002 
-2.732187e-002 
-2.754886e-002 
-2.759096e-002 
-2.733330e-002 
-2.741314e-002 
-2.757190e-002 
-2.737469e-002 
-2.735434e-002 
-2.746408e-002 
-2.743085e-002 
-2.739434e-002 
-2.726038e-002 
-2.749020e-002 
-2.740798e-002 
-2.715457e-002 
-2.749480e-002 
-2.736941e-002 
-2.720824e-002 
-2.727540e-002 
-2.741213e-002 
-2.724896e-002 
-2.717293e-002 
-2.735983e-002 
-2.731182e-002 
-2.715234e-002 
-2.722082e-002 
-2.733056e-002 
-2.716928e-002 
-2.715859e-002 
-2.726093e-002 
-2.723837e-002 
-2.710133e-002 
-2.718296e-002 
-2.724959e-002 
-2.713105e-002 
-2.707931e-002 
-2.724571e-002 
-2.720749e-002 
-2.705793e-002 
-2.715512e-002 
-2.726617e-002 
-2.710585e-002 
-2.705135e-002 
-2.722791e-002 
-2.719528e-002 
-2.703072e-002 
-2.717254e-002 
-2.724419e-002 
-2.710625e-002 
-2.712291e-002 
-2.722333e-002 
-2.719001e-002 
-2.710028e-002 
-2.718244e-002 
-2.725231e-002 
-2.716469e-002 
-2.713323e-002 
-2.724877e-002 
-2.724065e-002 
-2.713238e-002 
-2.718713e-002 
-2.729326e-002 
-2.720884e-002 
-2.713577e-002 
-2.724699e-002 
-2.729277e-002 
-2.716633e-002 
-2.717556e-002 
-2.731045e-002 
-2.726526e-002 
-2.714960e-002 
-2.724824e-002 
-2.734059e-002 
-2.721899e-002 
-2.717752e-002 
-2.732030e-002 
-2.732013e-002 
-2.718589e-002 
-2.724010e-002 
-2.736367e-002 
-2.727217e-002 
-2.719140e-002 
-2.732470e-002 
-2.736667e-002 
-2.722813e-002 
-2.724773e-002 
-2.739058e-002 
-2.732072e-002 
-2.720181e-002 
-2.731203e-002 
-2.736959e-002 
-2.719902e-002 
-2.716233e-002 
-2.728330e-002 
-2.719187e-002 
-2.701082e-002 
-2.707153e-002 
-2.713852e-002 
-2.698345e-002 
-2.691130e-002 
-2.706677e-002 
-2.708378e-002 
-2.695359e-002 
-2.703139e-002 
-2.719610e-002 
-2.715355e-002 
-2.712028e-002 
-2.729286e-002 
-2.739289e-002 
-2.734490e-002 
-2.742436e-002 
-2.759784e-002 
-2.762689e-002 
-2.760445e-002 
-2.772004e-002 
-2.783713e-002 
-2.778887e-002 
-2.776712e-002 
-2.787667e-002 
-2.791453e-002 
-2.781188e-002 
-2.780331e-002 
-2.792167e-002 
-2.788301e-002 
-2.775707e-002 
-2.782993e-002 
-2.790577e-002 
-2.778435e-002 
-2.774939e-002 
-2.785781e-002 
-2.782905e-002 
-2.771920e-002 
-2.777512e-002 
-2.783674e-002 
-2.774463e-002 
-2.771542e-002 
-2.780376e-002 
-2.778174e-002 
-2.769804e-002 
-2.774196e-002 
-2.780219e-002 
-2.772595e-002 
-2.769622e-002 
-2.778456e-002 
-2.777126e-002 
-2.769596e-002 
-2.773560e-002 
-2.779998e-002 
-2.774421e-002 
-2.770478e-002 
-2.778335e-002 
-2.779883e-002 
-2.773618e-002 
-2.775665e-002 
-2.782633e-002 
-2.779419e-002 
-2.776373e-002 
-2.782518e-002 
-2.785435e-002 
-2.780717e-002 
-2.782375e-002 
-2.788297e-002 
-2.788088e-002 
-2.785065e-002 
-2.788947e-002 
-2.793850e-002 
-2.790349e-002 
-2.788729e-002 
-2.794112e-002 
-2.796488e-002 
-2.792072e-002 
-2.792417e-002 
-2.797490e-002 
-2.795075e-002 
-2.791361e-002 
-2.794376e-002 
-2.796807e-002 
-2.791617e-002 
-2.789932e-002 
-2.795174e-002 
-2.792487e-002 
-2.785684e-002 
-2.788835e-002 
-2.791142e-002 
-2.782493e-002 
-2.779678e-002 
-2.785990e-002 
-2.782539e-002 
-2.772761e-002 
-2.773856e-002 
-2.779482e-002 
-2.772131e-002 
-2.766929e-002 
-2.773521e-002 
-2.774990e-002 
-2.766708e-002 
-2.766854e-002 
-2.772985e-002 
-2.769185e-002 
-2.763098e-002 
-2.767147e-002 
-2.770315e-002 
-2.764921e-002 
-2.763849e-002 
-2.770099e-002 
-2.769638e-002 
-2.764792e-002 
-2.768345e-002 
-2.772316e-002 
-2.767780e-002 
-2.765695e-002 
-2.770324e-002 
-2.769741e-002 
-2.764470e-002 
-2.766734e-002 
-2.770686e-002 
-2.766895e-002 
-2.765501e-002 
-2.770936e-002 
-2.771176e-002 
-2.767335e-002 
-2.770120e-002 
-2.774000e-002 
-2.771204e-002 
-2.770165e-002 
-2.774984e-002 
-2.777123e-002 
-2.776228e-002 
-2.780459e-002 
-2.787145e-002 
-2.788924e-002 
-2.790719e-002 
-2.797156e-002 
-2.800340e-002 
-2.799632e-002 
-2.801840e-002 
-2.804818e-002 
-2.802498e-002 
-2.801841e-002 
-2.803865e-002 
-2.802491e-002 
-2.798987e-002 
-2.799120e-002 
-2.797801e-002 
-2.793206e-002 
-2.789735e-002 
-2.788756e-002 
-2.785423e-002 
-2.778476e-002 
-2.775356e-002 
-2.774480e-002 
-2.768668e-002 
-2.762428e-002 
-2.762517e-002 
-2.762273e-002 
-2.758111e-002 
-2.757117e-002 
-2.760813e-002 
-2.761897e-002 
-2.759966e-002 
-2.761267e-002 
-2.764250e-002 
-2.761978e-002 
-2.756965e-002 
-2.756300e-002 
-2.755331e-002 
-2.747632e-002 
-2.740592e-002 
-2.738215e-002 
-2.731677e-002 
-2.720166e-002 
-2.713257e-002 
-2.708649e-002 
-2.697543e-002 
-2.686003e-002 
-2.680738e-002 
-2.673376e-002 
-2.660769e-002 
-2.652722e-002 
-2.648634e-002 
-2.639687e-002 
-2.630113e-002 
-2.626673e-002 
-2.623039e-002 
-2.615902e-002 
-2.612046e-002 
-2.612162e-002 
-2.610271e-002 
-2.607654e-002 
-2.609130e-002 
-2.612058e-002 
-2.612984e-002 
-2.615009e-002 
-2.620232e-002 
-2.624966e-002 
-2.628314e-002 
-2.633816e-002 
-2.640912e-002 
-2.645919e-002 
-2.650681e-002 
-2.658226e-002 
-2.664925e-002 
-2.668989e-002 
-2.675061e-002 
-2.682832e-002 
-2.687013e-002 
-2.690381e-002 
-2.697416e-002 
-2.702544e-002 
-2.703612e-002 
-2.707492e-002 
-2.713115e-002 
-2.713910e-002 
-2.713911e-002 
-2.717958e-002 
-2.719966e-002 
-2.718389e-002 
-2.718805e-002 
-2.721551e-002 
-2.721250e-002 
-2.718910e-002 
-2.720211e-002 
-2.721694e-002 
-2.720081e-002 
-2.718840e-002 
-2.720175e-002 
-2.720950e-002 
-2.718496e-002 
-2.718446e-002 
-2.720311e-002 
-2.718975e-002 
-2.717814e-002 
-2.718749e-002 
-2.719278e-002 
-2.718023e-002 
-2.717695e-002 
-2.718710e-002 
-2.718248e-002 
-2.717366e-002 
-2.718010e-002 
-2.718180e-002 
-2.717307e-002 
-2.717433e-002 
-2.717921e-002 
-2.717484e-002 
-2.717101e-002 
-2.717499e-002 
-2.717584e-002 
-2.716889e-002 
-2.716812e-002 
-2.717514e-002 
-2.717045e-002 
-2.716458e-002 
-2.717010e-002 
-2.717371e-002 
-2.716644e-002 
-2.716322e-002 
-2.717038e-002 
-2.717372e-002 
-2.716267e-002 
-2.716084e-002 
-2.717318e-002 
-2.716889e-002 
-2.715696e-002 
-2.716285e-002 
-2.717060e-002 
-2.716005e-002 
-2.715594e-002 
-2.716361e-002 
-2.716143e-002 
-2.715154e-002 
-2.715287e-002 
-2.715424e-002 
-2.714722e-002 
-2.714271e-002 
-2.714242e-002 
-2.713853e-002 
-2.713270e-002 
-2.712983e-002 
-2.712406e-002 
-2.711803e-002 
-2.711486e-002 
-2.710903e-002 
-2.710310e-002 
-2.709538e-002 
-2.709274e-002 
-2.708649e-002 
-2.707786e-002 
-2.707187e-002 
-2.706765e-002 
-2.706294e-002 
-2.705147e-002 
-2.704546e-002 
-2.704456e-002 
-2.703775e-002 
-2.702609e-002 
-2.702323e-002 
-2.702161e-002 
-2.701164e-002 
-2.700402e-002 
-2.700844e-002 
-2.137210e-002 
1.110223e-016 
-4.716303e-002 
-4.095827e-002 
-4.378867e-002 
-4.738443e-002 
-4.518381e-002 
-4.313634e-002 
-4.515389e-002 
-4.635995e-002 
-4.404505e-002 
-4.382197e-002 
-4.599407e-002 
-4.530130e-002 
-4.369431e-002 
-4.487582e-002 
-4.573803e-002 
-4.443445e-002 
-4.403247e-002 
-4.558415e-002 
-4.523954e-002 
-4.388160e-002 
-4.480362e-002 
-4.556404e-002 
-4.438694e-002 
-4.435168e-002 
-4.540706e-002 
-4.480220e-002 
-4.410925e-002 
-4.507104e-002 
-4.524686e-002 
-4.425811e-002 
-4.454772e-002 
-4.525543e-002 
-4.460803e-002 
-4.440900e-002 
-4.515515e-002 
-4.478982e-002 
-4.417651e-002 
-4.497880e-002 
-4.525281e-002 
-4.424153e-002 
-4.437028e-002 
-4.536897e-002 
-4.478585e-002 
-4.402862e-002 
-4.509525e-002 
-4.522956e-002 
-4.399127e-002 
-4.461175e-002 
-4.562520e-002 
-4.414141e-002 
-4.402900e-002 
-4.572657e-002 
-4.473101e-002 
-4.368710e-002 
-4.507080e-002 
-4.538519e-002 
-4.398576e-002 
-4.425585e-002 
-4.541992e-002 
-4.475923e-002 
-4.387677e-002 
-4.478181e-002 
-4.532087e-002 
-4.412743e-002 
-4.422018e-002 
-4.530286e-002 
-4.451599e-002 
-4.384114e-002 
-4.507609e-002 
-4.496557e-002 
-4.370557e-002 
-4.450416e-002 
-4.514705e-002 
-4.410809e-002 
-4.405958e-002 
-4.491325e-002 
-4.439442e-002 
-4.397861e-002 
-4.462134e-002 
-4.454592e-002 
-4.394888e-002 
-4.427370e-002 
-4.462401e-002 
-4.415340e-002 
-4.403149e-002 
-4.430213e-002 
-4.428257e-002 
-4.420267e-002 
-4.406807e-002 
-4.396595e-002 
-4.426447e-002 
-4.437744e-002 
-4.385514e-002 
-4.379684e-002 
-4.446624e-002 
-4.399178e-002 
-4.308067e-002 
-4.399805e-002 
-4.479688e-002 
-4.358167e-002 
-4.288970e-002 
-4.392273e-002 
-4.422335e-002 
-4.362646e-002 
-4.353023e-002 
-4.346226e-002 
-4.330318e-002 
-4.376433e-002 
-4.382425e-002 
-4.293224e-002 
-4.293746e-002 
-4.386232e-002 
-4.347249e-002 
-4.242669e-002 
-4.313158e-002 
-4.369710e-002 
-4.247615e-002 
-4.241381e-002 
-4.353251e-002 
-4.322690e-002 
-4.200760e-002 
-4.223648e-002 
-4.354924e-002 
-4.249931e-002 
-4.163805e-002 
-4.307444e-002 
-4.283544e-002 
-4.138350e-002 
-4.198804e-002 
-4.308067e-002 
-4.183843e-002 
-4.129497e-002 
-4.265331e-002 
-4.242754e-002 
-4.098009e-002 
-4.171424e-002 
-4.265397e-002 
-4.138826e-002 
-4.089402e-002 
-4.227161e-002 
-4.217351e-002 
-4.062590e-002 
-4.111806e-002 
-4.238437e-002 
-4.142493e-002 
-4.053061e-002 
-4.174647e-002 
-4.206463e-002 
-4.087193e-002 
-4.105330e-002 
-4.193475e-002 
-4.129989e-002 
-4.069417e-002 
-4.159362e-002 
-4.178764e-002 
-4.081975e-002 
-4.117021e-002 
-4.202521e-002 
-4.147072e-002 
-4.089852e-002 
-4.153444e-002 
-4.188674e-002 
-4.126225e-002 
-4.122606e-002 
-4.196144e-002 
-4.187491e-002 
-4.119111e-002 
-4.145696e-002 
-4.209433e-002 
-4.175403e-002 
-4.131342e-002 
-4.181055e-002 
-4.208793e-002 
-4.154878e-002 
-4.148907e-002 
-4.206943e-002 
-4.199233e-002 
-4.152227e-002 
-4.178146e-002 
-4.221601e-002 
-4.190854e-002 
-4.163696e-002 
-4.205834e-002 
-4.224486e-002 
-4.182230e-002 
-4.183637e-002 
-4.229073e-002 
-4.214431e-002 
-4.179101e-002 
-4.212950e-002 
-4.241058e-002 
-4.202341e-002 
-4.197417e-002 
-4.244464e-002 
-4.236772e-002 
-4.198785e-002 
-4.225185e-002 
-4.253308e-002 
-4.210060e-002 
-4.188001e-002 
-4.220845e-002 
-4.201783e-002 
-4.137584e-002 
-4.131986e-002 
-4.139162e-002 
-4.083144e-002 
-4.038502e-002 
-4.059889e-002 
-4.059377e-002 
-4.023122e-002 
-4.041962e-002 
-4.086685e-002 
-4.082516e-002 
-4.081829e-002 
-4.141019e-002 
-4.186779e-002 
-4.188614e-002 
-4.223577e-002 
-4.297214e-002 
-4.336494e-002 
-4.350986e-002 
-4.404883e-002 
-4.468807e-002 
-4.480932e-002 
-4.489397e-002 
-4.539534e-002 
-4.563912e-002 
-4.539307e-002 
-4.544756e-002 
-4.582157e-002 
-4.565931e-002 
-4.529964e-002 
-4.558853e-002 
-4.576577e-002 
-4.525384e-002 
-4.515433e-002 
-4.559677e-002 
-4.544759e-002 
-4.499193e-002 
-4.518285e-002 
-4.540332e-002 
-4.501714e-002 
-4.488012e-002 
-4.524173e-002 
-4.516283e-002 
-4.476936e-002 
-4.493334e-002 
-4.516880e-002 
-4.486858e-002 
-4.474858e-002 
-4.505196e-002 
-4.499454e-002 
-4.473539e-002 
-4.491541e-002 
-4.505763e-002 
-4.481058e-002 
-4.483385e-002 
-4.513577e-002 
-4.499872e-002 
-4.475435e-002 
-4.507406e-002 
-4.530839e-002 
-4.499056e-002 
-4.495109e-002 
-4.536724e-002 
-4.538345e-002 
-4.511181e-002 
-4.531796e-002 
-4.565307e-002 
-4.551261e-002 
-4.537630e-002 
-4.566125e-002 
-4.589228e-002 
-4.580312e-002 
-4.577233e-002 
-4.592415e-002 
-4.599663e-002 
-4.599726e-002 
-4.607104e-002 
-4.611721e-002 
-4.609141e-002 
-4.612057e-002 
-4.614449e-002 
-4.606476e-002 
-4.604366e-002 
-4.615421e-002 
-4.610089e-002 
-4.588334e-002 
-4.592663e-002 
-4.606469e-002 
-4.584392e-002 
-4.559142e-002 
-4.571011e-002 
-4.570227e-002 
-4.530356e-002 
-4.522253e-002 
-4.546184e-002 
-4.522341e-002 
-4.469482e-002 
-4.473567e-002 
-4.503426e-002 
-4.482032e-002 
-4.452811e-002 
-4.472141e-002 
-4.482389e-002 
-4.455049e-002 
-4.448839e-002 
-4.463654e-002 
-4.451291e-002 
-4.433078e-002 
-4.444331e-002 
-4.452760e-002 
-4.440798e-002 
-4.441004e-002 
-4.456712e-002 
-4.457749e-002 
-4.453037e-002 
-4.458391e-002 
-4.463150e-002 
-4.455647e-002 
-4.450381e-002 
-4.451614e-002 
-4.448692e-002 
-4.442975e-002 
-4.447418e-002 
-4.454367e-002 
-4.452729e-002 
-4.453707e-002 
-4.464380e-002 
-4.468846e-002 
-4.464293e-002 
-4.470094e-002 
-4.480547e-002 
-4.476884e-002 
-4.477748e-002 
-4.499392e-002 
-4.515902e-002 
-4.522990e-002 
-4.552422e-002 
-4.589376e-002 
-4.601120e-002 
-4.614003e-002 
-4.648995e-002 
-4.663329e-002 
-4.652581e-002 
-4.661888e-002 
-4.677605e-002 
-4.661110e-002 
-4.649655e-002 
-4.666287e-002 
-4.660501e-002 
-4.623695e-002 
-4.611168e-002 
-4.619026e-002 
-4.594158e-002 
-4.553334e-002 
-4.546904e-002 
-4.538904e-002 
-4.497581e-002 
-4.471329e-002 
-4.462938e-002 
-4.433060e-002 
-4.405185e-002 
-4.406099e-002 
-4.405342e-002 
-4.391242e-002 
-4.393813e-002 
-4.415069e-002 
-4.422457e-002 
-4.413642e-002 
-4.415706e-002 
-4.421982e-002 
-4.403103e-002 
-4.373439e-002 
-4.361880e-002 
-4.344816e-002 
-4.296975e-002 
-4.253870e-002 
-4.231381e-002 
-4.187387e-002 
-4.119716e-002 
-4.075414e-002 
-4.043288e-002 
-3.978743e-002 
-3.909470e-002 
-3.873801e-002 
-3.832398e-002 
-3.761468e-002 
-3.710228e-002 
-3.687834e-002 
-3.644186e-002 
-3.588017e-002 
-3.565886e-002 
-3.555438e-002 
-3.520986e-002 
-3.496077e-002 
-3.502713e-002 
-3.504667e-002 
-3.493172e-002 
-3.501636e-002 
-3.527300e-002 
-3.542511e-002 
-3.556109e-002 
-3.587777e-002 
-3.623130e-002 
-3.649219e-002 
-3.680591e-002 
-3.721226e-002 
-3.757177e-002 
-3.789458e-002 
-3.827936e-002 
-3.866445e-002 
-3.898643e-002 
-3.932257e-002 
-3.968398e-002 
-3.997740e-002 
-4.023453e-002 
-4.052533e-002 
-4.077435e-002 
-4.093921e-002 
-4.111306e-002 
-4.130536e-002 
-4.140472e-002 
-4.145740e-002 
-4.157029e-002 
-4.164857e-002 
-4.162716e-002 
-4.163175e-002 
-4.171085e-002 
-4.169730e-002 
-4.161541e-002 
-4.165981e-002 
-4.170653e-002 
-4.162395e-002 
-4.160276e-002 
-4.164940e-002 
-4.162875e-002 
-4.156929e-002 
-4.158037e-002 
-4.160288e-002 
-4.157033e-002 
-4.154236e-002 
-4.155754e-002 
-4.156489e-002 
-4.153967e-002 
-4.152332e-002 
-4.153666e-002 
-4.153804e-002 
-4.151138e-002 
-4.150955e-002 
-4.152621e-002 
-4.150323e-002 
-4.148771e-002 
-4.151494e-002 
-4.151072e-002 
-4.147468e-002 
-4.148970e-002 
-4.150011e-002 
-4.146220e-002 
-4.146371e-002 
-4.149802e-002 
-4.146494e-002 
-4.143626e-002 
-4.148845e-002 
-4.149205e-002 
-4.141959e-002 
-4.144112e-002 
-4.150617e-002 
-4.145611e-002 
-4.140749e-002 
-4.146346e-002 
-4.147607e-002 
-4.140940e-002 
-4.141442e-002 
-4.146212e-002 
-4.142089e-002 
-4.138129e-002 
-4.142661e-002 
-4.142327e-002 
-4.135279e-002 
-4.135750e-002 
-4.138905e-002 
-4.132893e-002 
-4.128500e-002 
-4.131558e-002 
-4.129104e-002 
-4.122419e-002 
-4.122605e-002 
-4.122218e-002 
-4.114361e-002 
-4.110526e-002 
-4.112963e-002 
-4.108611e-002 
-4.100138e-002 
-4.098441e-002 
-4.098648e-002 
-4.092461e-002 
-4.086326e-002 
-4.085059e-002 
-4.082545e-002 
-4.076831e-002 
-4.071937e-002 
-4.069141e-002 
-4.067169e-002 
-4.063612e-002 
-4.057664e-002 
-4.054291e-002 
-4.053533e-002 
-4.048622e-002 
-4.042974e-002 
-4.042974e-002 
1.110223e-016 
-4.627800e-002 
-4.542272e-002 
-4.457939e-002 
-4.405265e-002 
-4.532194e-002 
-4.539010e-002 
-4.456066e-002 
-4.454025e-002 
-4.534159e-002 
-4.504728e-002 
-4.434320e-002 
-4.463546e-002 
-4.569783e-002 
-4.468698e-002 
-4.389921e-002 
-4.543424e-002 
-4.536495e-002 
-4.408703e-002 
-4.469470e-002 
-4.543336e-002 
-4.463315e-002 
-4.436102e-002 
-4.505653e-002 
-4.505109e-002 
-4.457129e-002 
-4.456996e-002 
-4.491391e-002 
-4.499614e-002 
-4.465196e-002 
-4.447007e-002 
-4.495464e-002 
-4.505880e-002 
-4.437708e-002 
-4.456892e-002 
-4.531243e-002 
-4.462312e-002 
-4.413286e-002 
-4.520932e-002 
-4.514709e-002 
-4.400703e-002 
-4.467808e-002 
-4.548097e-002 
-4.439441e-002 
-4.417703e-002 
-4.534443e-002 
-4.487786e-002 
-4.411500e-002 
-4.489402e-002 
-4.511648e-002 
-4.425124e-002 
-4.472406e-002 
-4.494506e-002 
-4.442018e-002 
-4.481519e-002 
-4.469771e-002 
-4.442900e-002 
-4.490135e-002 
-4.472364e-002 
-4.424307e-002 
-4.490725e-002 
-4.498012e-002 
-4.402917e-002 
-4.461200e-002 
-4.533087e-002 
-4.419438e-002 
-4.403678e-002 
-4.533378e-002 
-4.460676e-002 
-4.386516e-002 
-4.481326e-002 
-4.489759e-002 
-4.409651e-002 
-4.426463e-002 
-4.484600e-002 
-4.449467e-002 
-4.407015e-002 
-4.436580e-002 
-4.475494e-002 
-4.428666e-002 
-4.396438e-002 
-4.444852e-002 
-4.463845e-002 
-4.407874e-002 
-4.392514e-002 
-4.450011e-002 
-4.449962e-002 
-4.382002e-002 
-4.394741e-002 
-4.462310e-002 
-4.418483e-002 
-4.355706e-002 
-4.433161e-002 
-4.458422e-002 
-4.347269e-002 
-4.374442e-002 
-4.458767e-002 
-4.362633e-002 
-4.330182e-002 
-4.463426e-002 
-4.405671e-002 
-4.262356e-002 
-4.392364e-002 
-4.484441e-002 
-4.304388e-002 
-4.265421e-002 
-4.449723e-002 
-4.413619e-002 
-4.241877e-002 
-4.324376e-002 
-4.443909e-002 
-4.306778e-002 
-4.235871e-002 
-4.382394e-002 
-4.368534e-002 
-4.232407e-002 
-4.291835e-002 
-4.354895e-002 
-4.288610e-002 
-4.236172e-002 
-4.277999e-002 
-4.351766e-002 
-4.206463e-002 
-4.213478e-002 
-4.360827e-002 
-4.222820e-002 
-4.179331e-002 
-4.275953e-002 
-4.270598e-002 
-4.147787e-002 
-4.196359e-002 
-4.287858e-002 
-4.195608e-002 
-4.140551e-002 
-4.228943e-002 
-4.224988e-002 
-4.121182e-002 
-4.160732e-002 
-4.224625e-002 
-4.172964e-002 
-4.118826e-002 
-4.172361e-002 
-4.171134e-002 
-4.112418e-002 
-4.142164e-002 
-4.192126e-002 
-4.114346e-002 
-4.092838e-002 
-4.188244e-002 
-4.177214e-002 
-4.078715e-002 
-4.121688e-002 
-4.189333e-002 
-4.112119e-002 
-4.084530e-002 
-4.170187e-002 
-4.148082e-002 
-4.103692e-002 
-4.152611e-002 
-4.172769e-002 
-4.127105e-002 
-4.119298e-002 
-4.163780e-002 
-4.161509e-002 
-4.138887e-002 
-4.165302e-002 
-4.177468e-002 
-4.141053e-002 
-4.149107e-002 
-4.197515e-002 
-4.177141e-002 
-4.136425e-002 
-4.177133e-002 
-4.211757e-002 
-4.158507e-002 
-4.139810e-002 
-4.206306e-002 
-4.210451e-002 
-4.147191e-002 
-4.170399e-002 
-4.232195e-002 
-4.191944e-002 
-4.150462e-002 
-4.212940e-002 
-4.237242e-002 
-4.171019e-002 
-4.174204e-002 
-4.243083e-002 
-4.220395e-002 
-4.164226e-002 
-4.211752e-002 
-4.256610e-002 
-4.197851e-002 
-4.182162e-002 
-4.254353e-002 
-4.251196e-002 
-4.183959e-002 
-4.217075e-002 
-4.272799e-002 
-4.212071e-002 
-4.169526e-002 
-4.229589e-002 
-4.217280e-002 
-4.117440e-002 
-4.114865e-002 
-4.154797e-002 
-4.078806e-002 
-4.005701e-002 
-4.058203e-002 
-4.083172e-002 
-4.007585e-002 
-4.011948e-002 
-4.102820e-002 
-4.101075e-002 
-4.059527e-002 
-4.127146e-002 
-4.204434e-002 
-4.186681e-002 
-4.203337e-002 
-4.301379e-002 
-4.344512e-002 
-4.335612e-002 
-4.394778e-002 
-4.476993e-002 
-4.479546e-002 
-4.470649e-002 
-4.535021e-002 
-4.577559e-002 
-4.537749e-002 
-4.524007e-002 
-4.581101e-002 
-4.589667e-002 
-4.525680e-002 
-4.530505e-002 
-4.586832e-002 
-4.550563e-002 
-4.498405e-002 
-4.543326e-002 
-4.563017e-002 
-4.504320e-002 
-4.499073e-002 
-4.544598e-002 
-4.519479e-002 
-4.478426e-002 
-4.510661e-002 
-4.528550e-002 
-4.483889e-002 
-4.479559e-002 
-4.518138e-002 
-4.501570e-002 
-4.464828e-002 
-4.495317e-002 
-4.516543e-002 
-4.474357e-002 
-4.470139e-002 
-4.513667e-002 
-4.505197e-002 
-4.468135e-002 
-4.489528e-002 
-4.522594e-002 
-4.494294e-002 
-4.480291e-002 
-4.519138e-002 
-4.527118e-002 
-4.497624e-002 
-4.512944e-002 
-4.544819e-002 
-4.531610e-002 
-4.519856e-002 
-4.551024e-002 
-4.563862e-002 
-4.545461e-002 
-4.555812e-002 
-4.590607e-002 
-4.587557e-002 
-4.568347e-002 
-4.589765e-002 
-4.614629e-002 
-4.597176e-002 
-4.591308e-002 
-4.623179e-002 
-4.624277e-002 
-4.593437e-002 
-4.604619e-002 
-4.631100e-002 
-4.608809e-002 
-4.585952e-002 
-4.613233e-002 
-4.620163e-002 
-4.578562e-002 
-4.578793e-002 
-4.610129e-002 
-4.580242e-002 
-4.537449e-002 
-4.561124e-002 
-4.568658e-002 
-4.515024e-002 
-4.500250e-002 
-4.532583e-002 
-4.509082e-002 
-4.451341e-002 
-4.472234e-002 
-4.508134e-002 
-4.466951e-002 
-4.440021e-002 
-4.479022e-002 
-4.481733e-002 
-4.434276e-002 
-4.436914e-002 
-4.468573e-002 
-4.445531e-002 
-4.418874e-002 
-4.448858e-002 
-4.464485e-002 
-4.433450e-002 
-4.438073e-002 
-4.473345e-002 
-4.461988e-002 
-4.438603e-002 
-4.462979e-002 
-4.474107e-002 
-4.440592e-002 
-4.434037e-002 
-4.459951e-002 
-4.448815e-002 
-4.426798e-002 
-4.450944e-002 
-4.468321e-002 
-4.445165e-002 
-4.448398e-002 
-4.480706e-002 
-4.475623e-002 
-4.455170e-002 
-4.471890e-002 
-4.490018e-002 
-4.477516e-002 
-4.481784e-002 
-4.517418e-002 
-4.536366e-002 
-4.539485e-002 
-4.571856e-002 
-4.610859e-002 
-4.617460e-002 
-4.625377e-002 
-4.655634e-002 
-4.666075e-002 
-4.653145e-002 
-4.660209e-002 
-4.671154e-002 
-4.660392e-002 
-4.651304e-002 
-4.652783e-002 
-4.639017e-002 
-4.616378e-002 
-4.604767e-002 
-4.594449e-002 
-4.565148e-002 
-4.539380e-002 
-4.531896e-002 
-4.507511e-002 
-4.466257e-002 
-4.445502e-002 
-4.440083e-002 
-4.415539e-002 
-4.389291e-002 
-4.394327e-002 
-4.407330e-002 
-4.396278e-002 
-4.395713e-002 
-4.423693e-002 
-4.432942e-002 
-4.410328e-002 
-4.405866e-002 
-4.415512e-002 
-4.389848e-002 
-4.345850e-002 
-4.333900e-002 
-4.317474e-002 
-4.258800e-002 
-4.207642e-002 
-4.186811e-002 
-4.139788e-002 
-4.064771e-002 
-4.021008e-002 
-3.990054e-002 
-3.921335e-002 
-3.852638e-002 
-3.820935e-002 
-3.778352e-002 
-3.709167e-002 
-3.665440e-002 
-3.644211e-002 
-3.601007e-002 
-3.555291e-002 
-3.539969e-002 
-3.528763e-002 
-3.502100e-002 
-3.489108e-002 
-3.498099e-002 
-3.501358e-002 
-3.499823e-002 
-3.516593e-002 
-3.543071e-002 
-3.560111e-002 
-3.581360e-002 
-3.618296e-002 
-3.651993e-002 
-3.677670e-002 
-3.715655e-002 
-3.759101e-002 
-3.788579e-002 
-3.820973e-002 
-3.867365e-002 
-3.902079e-002 
-3.925029e-002 
-3.964467e-002 
-4.005517e-002 
-4.022481e-002 
-4.043652e-002 
-4.082579e-002 
-4.102590e-002 
-4.104519e-002 
-4.126297e-002 
-4.152235e-002 
-4.148245e-002 
-4.146610e-002 
-4.167005e-002 
-4.173734e-002 
-4.160510e-002 
-4.161165e-002 
-4.175754e-002 
-4.170670e-002 
-4.157209e-002 
-4.164522e-002 
-4.173918e-002 
-4.161497e-002 
-4.154646e-002 
-4.165842e-002 
-4.165649e-002 
-4.153136e-002 
-4.154844e-002 
-4.163142e-002 
-4.157198e-002 
-4.150352e-002 
-4.156616e-002 
-4.158517e-002 
-4.151160e-002 
-4.151544e-002 
-4.156044e-002 
-4.152574e-002 
-4.149889e-002 
-4.153347e-002 
-4.152962e-002 
-4.149435e-002 
-4.150218e-002 
-4.152319e-002 
-4.149534e-002 
-4.147348e-002 
-4.150220e-002 
-4.150680e-002 
-4.145653e-002 
-4.146563e-002 
-4.151109e-002 
-4.148093e-002 
-4.143025e-002 
-4.147273e-002 
-4.151016e-002 
-4.144700e-002 
-4.141024e-002 
-4.149059e-002 
-4.150152e-002 
-4.139818e-002 
-4.140442e-002 
-4.149143e-002 
-4.143951e-002 
-4.135912e-002 
-4.142010e-002 
-4.145526e-002 
-4.137278e-002 
-4.135607e-002 
-4.140817e-002 
-4.137033e-002 
-4.130832e-002 
-4.133025e-002 
-4.133344e-002 
-4.127697e-002 
-4.125597e-002 
-4.125842e-002 
-4.121584e-002 
-4.117725e-002 
-4.116926e-002 
-4.113565e-002 
-4.108389e-002 
-4.105979e-002 
-4.104507e-002 
-4.098765e-002 
-4.093721e-002 
-4.092932e-002 
-4.090204e-002 
-4.083275e-002 
-4.078753e-002 
-4.078624e-002 
-4.074923e-002 
-4.067185e-002 
-4.063807e-002 
-4.063966e-002 
-4.059320e-002 
-4.052612e-002 
-4.050502e-002 
-4.049533e-002 
-4.044720e-002 
-4.044720e-002 
1.110223e-016 
-4.407505e-002 
-4.735233e-002 
-4.504559e-002 
-4.321067e-002 
-4.520180e-002 
-4.631995e-002 
-4.453331e-002 
-4.363135e-002 
-4.557293e-002 
-4.579907e-002 
-4.405629e-002 
-4.442538e-002 
-4.566707e-002 
-4.486408e-002 
-4.421134e-002 
-4.513393e-002 
-4.533248e-002 
-4.425953e-002 
-4.460623e-002 
-4.551506e-002 
-4.465734e-002 
-4.423854e-002 
-4.528677e-002 
-4.502530e-002 
-4.417658e-002 
-4.494604e-002 
-4.536380e-002 
-4.427288e-002 
-4.445702e-002 
-4.545712e-002 
-4.474552e-002 
-4.410356e-002 
-4.517622e-002 
-4.517931e-002 
-4.407614e-002 
-4.470283e-002 
-4.551830e-002 
-4.437088e-002 
-4.409773e-002 
-4.543336e-002 
-4.511959e-002 
-4.379986e-002 
-4.478465e-002 
-4.568122e-002 
-4.418943e-002 
-4.398759e-002 
-4.574968e-002 
-4.487753e-002 
-4.351806e-002 
-4.527847e-002 
-4.555657e-002 
-4.358628e-002 
-4.449905e-002 
-4.578890e-002 
-4.425392e-002 
-4.386745e-002 
-4.533159e-002 
-4.510005e-002 
-4.390846e-002 
-4.443111e-002 
-4.541780e-002 
-4.456334e-002 
-4.387577e-002 
-4.499047e-002 
-4.515267e-002 
-4.389125e-002 
-4.445686e-002 
-4.528821e-002 
-4.417111e-002 
-4.405359e-002 
-4.511199e-002 
-4.454140e-002 
-4.389951e-002 
-4.472642e-002 
-4.469691e-002 
-4.402927e-002 
-4.443952e-002 
-4.464416e-002 
-4.408760e-002 
-4.428344e-002 
-4.460809e-002 
-4.409698e-002 
-4.409745e-002 
-4.453670e-002 
-4.418521e-002 
-4.397306e-002 
-4.437381e-002 
-4.419368e-002 
-4.391797e-002 
-4.430360e-002 
-4.424459e-002 
-4.369342e-002 
-4.414499e-002 
-4.447784e-002 
-4.353447e-002 
-4.357119e-002 
-4.470661e-002 
-4.393449e-002 
-4.283741e-002 
-4.407436e-002 
-4.469535e-002 
-4.319477e-002 
-4.300348e-002 
-4.430464e-002 
-4.396381e-002 
-4.298857e-002 
-4.351081e-002 
-4.386246e-002 
-4.316172e-002 
-4.325088e-002 
-4.373082e-002 
-4.310136e-002 
-4.282714e-002 
-4.357919e-002 
-4.324714e-002 
-4.244494e-002 
-4.306636e-002 
-4.347009e-002 
-4.259720e-002 
-4.224786e-002 
-4.316803e-002 
-4.320901e-002 
-4.174098e-002 
-4.247956e-002 
-4.344875e-002 
-4.197131e-002 
-4.162651e-002 
-4.293932e-002 
-4.264046e-002 
-4.126038e-002 
-4.214969e-002 
-4.286170e-002 
-4.155509e-002 
-4.125704e-002 
-4.257448e-002 
-4.207393e-002 
-4.096921e-002 
-4.182753e-002 
-4.242774e-002 
-4.114886e-002 
-4.089336e-002 
-4.221808e-002 
-4.191044e-002 
-4.055657e-002 
-4.132743e-002 
-4.228076e-002 
-4.113361e-002 
-4.068576e-002 
-4.195447e-002 
-4.179487e-002 
-4.063451e-002 
-4.116699e-002 
-4.201723e-002 
-4.109392e-002 
-4.068663e-002 
-4.180948e-002 
-4.177561e-002 
-4.085489e-002 
-4.128641e-002 
-4.198526e-002 
-4.137180e-002 
-4.091627e-002 
-4.171378e-002 
-4.201806e-002 
-4.122507e-002 
-4.120775e-002 
-4.209612e-002 
-4.190915e-002 
-4.112771e-002 
-4.157026e-002 
-4.227913e-002 
-4.168595e-002 
-4.122858e-002 
-4.193028e-002 
-4.215467e-002 
-4.146493e-002 
-4.159059e-002 