# vtk DataFile Version 2.0
2D-ADE data file 
ASCII
DATASET RECTILINEAR_GRID
DIMENSIONS 512 128 1
X_COORDINATES 512 int
0 1 2 3 4 5 6 7 8 9 10 11 12 13 14 15 16 17 18 19 20 21 22 23 24 25 26 27 28 29 30 31 32 33 34 35 36 37 38 39 40 41 42 43 44 45 46 47 48 49 50 51 52 53 54 55 56 57 58 59 60 61 62 63 64 65 66 67 68 69 70 71 72 73 74 75 76 77 78 79 80 81 82 83 84 85 86 87 88 89 90 91 92 93 94 95 96 97 98 99 100 101 102 103 104 105 106 107 108 109 110 111 112 113 114 115 116 117 118 119 120 121 122 123 124 125 126 127 128 129 130 131 132 133 134 135 136 137 138 139 140 141 142 143 144 145 146 147 148 149 150 151 152 153 154 155 156 157 158 159 160 161 162 163 164 165 166 167 168 169 170 171 172 173 174 175 176 177 178 179 180 181 182 183 184 185 186 187 188 189 190 191 192 193 194 195 196 197 198 199 200 201 202 203 204 205 206 207 208 209 210 211 212 213 214 215 216 217 218 219 220 221 222 223 224 225 226 227 228 229 230 231 232 233 234 235 236 237 238 239 240 241 242 243 244 245 246 247 248 249 250 251 252 253 254 255 256 257 258 259 260 261 262 263 264 265 266 267 268 269 270 271 272 273 274 275 276 277 278 279 280 281 282 283 284 285 286 287 288 289 290 291 292 293 294 295 296 297 298 299 300 301 302 303 304 305 306 307 308 309 310 311 312 313 314 315 316 317 318 319 320 321 322 323 324 325 326 327 328 329 330 331 332 333 334 335 336 337 338 339 340 341 342 343 344 345 346 347 348 349 350 351 352 353 354 355 356 357 358 359 360 361 362 363 364 365 366 367 368 369 370 371 372 373 374 375 376 377 378 379 380 381 382 383 384 385 386 387 388 389 390 391 392 393 394 395 396 397 398 399 400 401 402 403 404 405 406 407 408 409 410 411 412 413 414 415 416 417 418 419 420 421 422 423 424 425 426 427 428 429 430 431 432 433 434 435 436 437 438 439 440 441 442 443 444 445 446 447 448 449 450 451 452 453 454 455 456 457 458 459 460 461 462 463 464 465 466 467 468 469 470 471 472 473 474 475 476 477 478 479 480 481 482 483 484 485 486 487 488 489 490 491 492 493 494 495 496 497 498 499 500 501 502 503 504 505 506 507 508 509 510 511 
Y_COORDINATES 128 int
0 1 2 3 4 5 6 7 8 9 10 11 12 13 14 15 16 17 18 19 20 21 22 23 24 25 26 27 28 29 30 31 32 33 34 35 36 37 38 39 40 41 42 43 44 45 46 47 48 49 50 51 52 53 54 55 56 57 58 59 60 61 62 63 64 65 66 67 68 69 70 71 72 73 74 75 76 77 78 79 80 81 82 83 84 85 86 87 88 89 90 91 92 93 94 95 96 97 98 99 100 101 102 103 104 105 106 107 108 109 110 111 112 113 114 115 116 117 118 119 120 121 122 123 124 125 126 127 
Z_COORDINATES 1 int
0
POINT_DATA 65536 
SCALARS density double 1
LOOKUP_TABLE default
-2.137048e-002 
-3.125288e-002 
-2.781601e-002 
-2.736722e-002 
-2.749980e-002 
-2.742845e-002 
-2.754241e-002 
-2.749328e-002 
-2.745894e-002 
-2.743159e-002 
-2.754174e-002 
-2.746443e-002 
-2.750129e-002 
-2.741734e-002 
-2.749374e-002 
-2.757300e-002 
-2.740702e-002 
-2.746288e-002 
-2.756791e-002 
-2.745282e-002 
-2.745165e-002 
-2.751681e-002 
-2.747961e-002 
-2.747191e-002 
-2.748231e-002 
-2.744470e-002 
-2.749405e-002 
-2.750859e-002 
-2.741698e-002 
-2.744704e-002 
-2.756467e-002 
-2.744702e-002 
-2.736669e-002 
-2.756142e-002 
-2.754393e-002 
-2.732105e-002 
-2.747753e-002 
-2.762612e-002 
-2.737219e-002 
-2.735428e-002 
-2.762575e-002 
-2.749808e-002 
-2.729172e-002 
-2.752117e-002 
-2.762786e-002 
-2.731694e-002 
-2.739630e-002 
-2.764108e-002 
-2.745202e-002 
-2.728538e-002 
-2.761141e-002 
-2.751646e-002 
-2.731918e-002 
-2.753108e-002 
-2.750746e-002 
-2.739942e-002 
-2.746707e-002 
-2.747365e-002 
-2.744093e-002 
-2.747489e-002 
-2.742362e-002 
-2.743049e-002 
-2.752594e-002 
-2.741636e-002 
-2.738097e-002 
-2.751560e-002 
-2.750117e-002 
-2.730657e-002 
-2.748631e-002 
-2.753802e-002 
-2.732101e-002 
-2.741024e-002 
-2.752384e-002 
-2.737473e-002 
-2.736262e-002 
-2.747775e-002 
-2.739021e-002 
-2.738292e-002 
-2.739598e-002 
-2.739410e-002 
-2.738086e-002 
-2.737558e-002 
-2.733950e-002 
-2.737263e-002 
-2.738527e-002 
-2.731290e-002 
-2.731809e-002 
-2.737331e-002 
-2.735223e-002 
-2.723903e-002 
-2.731808e-002 
-2.739986e-002 
-2.724317e-002 
-2.722159e-002 
-2.739292e-002 
-2.726602e-002 
-2.711840e-002 
-2.732735e-002 
-2.733769e-002 
-2.710437e-002 
-2.718828e-002 
-2.735570e-002 
-2.715133e-002 
-2.703933e-002 
-2.725791e-002 
-2.728612e-002 
-2.701301e-002 
-2.704135e-002 
-2.730309e-002 
-2.718345e-002 
-2.696202e-002 
-2.711652e-002 
-2.723967e-002 
-2.698836e-002 
-2.693903e-002 
-2.717671e-002 
-2.705365e-002 
-2.688743e-002 
-2.703216e-002 
-2.703895e-002 
-2.696691e-002 
-2.681047e-002 
-2.704892e-002 
-2.704026e-002 
-2.667674e-002 
-2.701944e-002 
-2.698473e-002 
-2.677846e-002 
-2.680108e-002 
-2.698135e-002 
-2.683233e-002 
-2.668075e-002 
-2.688329e-002 
-2.686033e-002 
-2.669805e-002 
-2.671158e-002 
-2.686165e-002 
-2.671408e-002 
-2.664990e-002 
-2.672401e-002 
-2.675472e-002 
-2.659263e-002 
-2.664847e-002 
-2.670113e-002 
-2.660642e-002 
-2.655942e-002 
-2.666496e-002 
-2.660472e-002 
-2.652189e-002 
-2.662669e-002 
-2.663263e-002 
-2.650613e-002 
-2.651375e-002 
-2.661371e-002 
-2.652798e-002 
-2.641716e-002 
-2.657439e-002 
-2.660818e-002 
-2.641479e-002 
-2.649221e-002 
-2.657230e-002 
-2.645981e-002 
-2.642463e-002 
-2.651551e-002 
-2.653568e-002 
-2.648317e-002 
-2.646074e-002 
-2.651832e-002 
-2.651000e-002 
-2.643487e-002 
-2.647300e-002 
-2.654080e-002 
-2.651277e-002 
-2.646886e-002 
-2.651896e-002 
-2.657364e-002 
-2.652196e-002 
-2.649131e-002 
-2.656361e-002 
-2.659317e-002 
-2.649679e-002 
-2.650442e-002 
-2.660639e-002 
-2.658637e-002 
-2.650471e-002 
-2.658219e-002 
-2.665759e-002 
-2.653590e-002 
-2.650006e-002 
-2.664464e-002 
-2.662289e-002 
-2.647172e-002 
-2.657195e-002 
-2.669673e-002 
-2.654833e-002 
-2.648702e-002 
-2.667139e-002 
-2.665073e-002 
-2.647214e-002 
-2.655479e-002 
-2.668410e-002 
-2.654877e-002 
-2.645199e-002 
-2.660595e-002 
-2.663354e-002 
-2.646478e-002 
-2.649997e-002 
-2.665539e-002 
-2.656893e-002 
-2.646528e-002 
-2.660726e-002 
-2.666851e-002 
-2.651806e-002 
-2.649742e-002 
-2.663656e-002 
-2.658256e-002 
-2.643435e-002 
-2.651051e-002 
-2.662325e-002 
-2.648580e-002 
-2.640994e-002 
-2.655776e-002 
-2.654222e-002 
-2.636610e-002 
-2.637161e-002 
-2.642694e-002 
-2.630120e-002 
-2.616163e-002 
-2.619129e-002 
-2.619335e-002 
-2.605759e-002 
-2.604164e-002 
-2.614967e-002 
-2.615725e-002 
-2.613625e-002 
-2.626139e-002 
-2.642022e-002 
-2.645749e-002 
-2.654833e-002 
-2.676436e-002 
-2.689220e-002 
-2.692493e-002 
-2.706542e-002 
-2.722785e-002 
-2.723069e-002 
-2.722381e-002 
-2.733805e-002 
-2.736985e-002 
-2.728184e-002 
-2.729972e-002 
-2.737833e-002 
-2.731285e-002 
-2.723688e-002 
-2.730298e-002 
-2.732584e-002 
-2.722304e-002 
-2.721210e-002 
-2.729624e-002 
-2.725363e-002 
-2.716829e-002 
-2.722776e-002 
-2.727585e-002 
-2.719041e-002 
-2.716280e-002 
-2.724580e-002 
-2.722954e-002 
-2.714335e-002 
-2.718030e-002 
-2.724443e-002 
-2.717197e-002 
-2.712585e-002 
-2.720904e-002 
-2.722206e-002 
-2.712457e-002 
-2.714442e-002 
-2.722762e-002 
-2.717690e-002 
-2.710084e-002 
-2.716993e-002 
-2.721100e-002 
-2.712334e-002 
-2.710945e-002 
-2.719521e-002 
-2.717597e-002 
-2.709166e-002 
-2.713719e-002 
-2.720145e-002 
-2.712664e-002 
-2.708520e-002 
-2.717682e-002 
-2.718429e-002 
-2.708880e-002 
-2.711833e-002 
-2.720337e-002 
-2.714425e-002 
-2.708089e-002 
-2.716400e-002 
-2.720358e-002 
-2.710873e-002 
-2.710737e-002 
-2.719899e-002 
-2.717021e-002 
-2.709516e-002 
-2.715248e-002 
-2.720366e-002 
-2.712664e-002 
-2.710662e-002 
-2.718713e-002 
-2.717785e-002 
-2.710445e-002 
-2.714621e-002 
-2.719815e-002 
-2.713615e-002 
-2.710738e-002 
-2.718072e-002 
-2.718119e-002 
-2.711093e-002 
-2.713343e-002 
-2.719621e-002 
-2.716060e-002 
-2.711557e-002 
-2.717556e-002 
-2.720653e-002 
-2.714632e-002 
-2.714496e-002 
-2.720921e-002 
-2.719138e-002 
-2.714328e-002 
-2.717886e-002 
-2.721117e-002 
-2.716509e-002 
-2.714517e-002 
-2.719070e-002 
-2.718518e-002 
-2.713636e-002 
-2.715113e-002 
-2.718987e-002 
-2.715881e-002 
-2.713139e-002 
-2.717309e-002 
-2.717909e-002 
-2.714003e-002 
-2.714790e-002 
-2.718603e-002 
-2.716095e-002 
-2.713179e-002 
-2.716433e-002 
-2.717784e-002 
-2.713948e-002 
-2.713871e-002 
-2.717764e-002 
-2.716394e-002 
-2.713231e-002 
-2.715562e-002 
-2.718376e-002 
-2.715244e-002 
-2.713610e-002 
-2.716891e-002 
-2.717319e-002 
-2.714441e-002 
-2.714535e-002 
-2.717615e-002 
-2.716424e-002 
-2.714662e-002 
-2.716177e-002 
-2.717171e-002 
-2.716178e-002 
-2.716048e-002 
-2.716420e-002 
-2.716192e-002 
-2.716408e-002 
-2.716795e-002 
-2.716533e-002 
-2.716458e-002 
-2.717379e-002 
-2.717675e-002 
-2.716412e-002 
-2.716931e-002 
-2.718102e-002 
-2.717184e-002 
-2.716115e-002 
-2.717663e-002 
-2.717395e-002 
-2.715772e-002 
-2.716787e-002 
-2.718075e-002 
-2.716639e-002 
-2.715750e-002 
-2.717983e-002 
-2.718852e-002 
-2.717198e-002 
-2.717303e-002 
-2.719510e-002 
-2.719322e-002 
-2.718416e-002 
-2.718861e-002 
-2.719526e-002 
-2.718529e-002 
-2.718224e-002 
-2.718630e-002 
-2.717565e-002 
-2.717100e-002 
-2.717797e-002 
-2.717326e-002 
-2.715728e-002 
-2.716284e-002 
-2.716808e-002 
-2.715378e-002 
-2.715199e-002 
-2.716983e-002 
-2.716500e-002 
-2.715170e-002 
-2.716627e-002 
-2.717663e-002 
-2.716065e-002 
-2.716107e-002 
-2.718511e-002 
-2.718534e-002 
-2.716200e-002 
-2.717352e-002 
-2.720262e-002 
-2.717912e-002 
-2.716328e-002 
-2.719004e-002 
-2.719204e-002 
-2.716195e-002 
-2.716818e-002 
-2.719225e-002 
-2.717787e-002 
-2.715513e-002 
-2.717866e-002 
-2.719782e-002 
-2.716674e-002 
-2.716117e-002 
-2.719726e-002 
-2.719779e-002 
-2.717022e-002 
-2.718432e-002 
-2.721385e-002 
-2.719606e-002 
-2.718672e-002 
-2.721064e-002 
-2.721129e-002 
-2.719065e-002 
-2.720533e-002 
-2.722421e-002 
-2.721281e-002 
-2.720064e-002 
-2.721703e-002 
-2.723370e-002 
-2.721658e-002 
-2.721024e-002 
-2.723452e-002 
-2.723644e-002 
-2.722510e-002 
-2.723580e-002 
-2.724375e-002 
-2.723367e-002 
-2.723579e-002 
-2.724903e-002 
-2.725109e-002 
-2.723774e-002 
-2.724453e-002 
-2.726171e-002 
-2.725360e-002 
-2.723821e-002 
-2.725345e-002 
-2.726577e-002 
-2.724551e-002 
-2.724341e-002 
-2.726500e-002 
-2.725890e-002 
-2.724225e-002 
-2.725967e-002 
-2.727122e-002 
-2.725283e-002 
-2.724912e-002 
-2.727434e-002 
-2.727196e-002 
-2.724329e-002 
-2.725319e-002 
-2.727823e-002 
-2.726009e-002 
-2.724285e-002 
-2.726634e-002 
-2.727448e-002 
-2.724710e-002 
-2.725649e-002 
-2.727536e-002 
-2.726082e-002 
-2.724380e-002 
-2.726365e-002 
-2.726812e-002 
-2.724593e-002 
-2.724510e-002 
-2.726855e-002 
-2.725810e-002 
-2.724002e-002 
-2.725528e-002 
-2.726642e-002 
-2.724600e-002 
-2.724191e-002 
-2.726044e-002 
-2.726121e-002 
-2.723855e-002 
-2.724516e-002 
-2.726702e-002 
-2.725820e-002 
-2.724236e-002 
-2.725326e-002 
-2.727063e-002 
-2.149799e-002 
1.110223e-016 
-4.833058e-002 
-4.210991e-002 
-4.500567e-002 
-4.854766e-002 
-4.628645e-002 
-4.438443e-002 
-4.632189e-002 
-4.734451e-002 
-4.524642e-002 
-4.513630e-002 
-4.714186e-002 
-4.645811e-002 
-4.486843e-002 
-4.606396e-002 
-4.703593e-002 
-4.579402e-002 
-4.528789e-002 
-4.672916e-002 
-4.649736e-002 
-4.519091e-002 
-4.608387e-002 
-4.684200e-002 
-4.560442e-002 
-4.550776e-002 
-4.659856e-002 
-4.607978e-002 
-4.540392e-002 
-4.625825e-002 
-4.634625e-002 
-4.549247e-002 
-4.591027e-002 
-4.648649e-002 
-4.574277e-002 
-4.566160e-002 
-4.640914e-002 
-4.598395e-002 
-4.548424e-002 
-4.627691e-002 
-4.633948e-002 
-4.539034e-002 
-4.576910e-002 
-4.667103e-002 
-4.588588e-002 
-4.521264e-002 
-4.640721e-002 
-4.648694e-002 
-4.520742e-002 
-4.582677e-002 
-4.685229e-002 
-4.542497e-002 
-4.531167e-002 
-4.698982e-002 
-4.591304e-002 
-4.494633e-002 
-4.645011e-002 
-4.655063e-002 
-4.510890e-002 
-4.563143e-002 
-4.667158e-002 
-4.579376e-002 
-4.516116e-002 
-4.613449e-002 
-4.645434e-002 
-4.533883e-002 
-4.549365e-002 
-4.645304e-002 
-4.582461e-002 
-4.515630e-002 
-4.613880e-002 
-4.621724e-002 
-4.504484e-002 
-4.559460e-002 
-4.635054e-002 
-4.543802e-002 
-4.509155e-002 
-4.598583e-002 
-4.578228e-002 
-4.512819e-002 
-4.545322e-002 
-4.573040e-002 
-4.527667e-002 
-4.517175e-002 
-4.550313e-002 
-4.530041e-002 
-4.508350e-002 
-4.526222e-002 
-4.527497e-002 
-4.502480e-002 
-4.501632e-002 
-4.501702e-002 
-4.497416e-002 
-4.511699e-002 
-4.496646e-002 
-4.467727e-002 
-4.485693e-002 
-4.470339e-002 
-4.417619e-002 
-4.477161e-002 
-4.534525e-002 
-4.426195e-002 
-4.354330e-002 
-4.448994e-002 
-4.488005e-002 
-4.416664e-002 
-4.377817e-002 
-4.381765e-002 
-4.399591e-002 
-4.426847e-002 
-4.419843e-002 
-4.363377e-002 
-4.366949e-002 
-4.410277e-002 
-4.354468e-002 
-4.282235e-002 
-4.354416e-002 
-4.407367e-002 
-4.287238e-002 
-4.248922e-002 
-4.355230e-002 
-4.334216e-002 
-4.225921e-002 
-4.251022e-002 
-4.365467e-002 
-4.250086e-002 
-4.159826e-002 
-4.329836e-002 
-4.302811e-002 
-4.138933e-002 
-4.199782e-002 
-4.315667e-002 
-4.179997e-002 
-4.118915e-002 
-4.254393e-002 
-4.221966e-002 
-4.084363e-002 
-4.171240e-002 
-4.249614e-002 
-4.098786e-002 
-4.060857e-002 
-4.207105e-002 
-4.159247e-002 
-4.005574e-002 
-4.102918e-002 
-4.197301e-002 
-4.042277e-002 
-3.983476e-002 
-4.150925e-002 
-4.134854e-002 
-3.971022e-002 
-4.039765e-002 
-4.161611e-002 
-4.034329e-002 
-3.936224e-002 
-4.062645e-002 
-4.101811e-002 
-3.973043e-002 
-3.994615e-002 
-4.089876e-002 
-4.022999e-002 
-3.954569e-002 
-4.013923e-002 
-4.043612e-002 
-3.988606e-002 
-3.981719e-002 
-4.044778e-002 
-4.042844e-002 
-3.976504e-002 
-3.983829e-002 
-4.032705e-002 
-4.010472e-002 
-3.984674e-002 
-4.029533e-002 
-4.051737e-002 
-4.009022e-002 
-4.006221e-002 
-4.062965e-002 
-4.058484e-002 
-4.010715e-002 
-4.034734e-002 
-4.072208e-002 
-4.033112e-002 
-4.017623e-002 
-4.071582e-002 
-4.082180e-002 
-4.041096e-002 
-4.054466e-002 
-4.089538e-002 
-4.053256e-002 
-4.026399e-002 
-4.075175e-002 
-4.088121e-002 
-4.034249e-002 
-4.046954e-002 
-4.103439e-002 
-4.072777e-002 
-4.028299e-002 
-4.075986e-002 
-4.098287e-002 
-4.036844e-002 
-4.034959e-002 
-4.089844e-002 
-4.061042e-002 
-4.006549e-002 
-4.051669e-002 
-4.086300e-002 
-4.023910e-002 
-4.010728e-002 
-4.087104e-002 
-4.083277e-002 
-4.020153e-002 
-4.055119e-002 
-4.109321e-002 
-4.050290e-002 
-3.999551e-002 
-4.058015e-002 
-4.072998e-002 
-3.996283e-002 
-3.997361e-002 
-4.067969e-002 
-4.035777e-002 
-3.965799e-002 
-4.006504e-002 
-4.028840e-002 
-3.940191e-002 
-3.887402e-002 
-3.916875e-002 
-3.884784e-002 
-3.787582e-002 
-3.767391e-002 
-3.794260e-002 
-3.756261e-002 
-3.737188e-002 
-3.799566e-002 
-3.845124e-002 
-3.851366e-002 
-3.917286e-002 
-4.021283e-002 
-4.075553e-002 
-4.133435e-002 
-4.243123e-002 
-4.324363e-002 
-4.357848e-002 
-4.418520e-002 
-4.483479e-002 
-4.490940e-002 
-4.487475e-002 
-4.519897e-002 
-4.528872e-002 
-4.500350e-002 
-4.498332e-002 
-4.515756e-002 
-4.495809e-002 
-4.468682e-002 
-4.479378e-002 
-4.487527e-002 
-4.461929e-002 
-4.448675e-002 
-4.462717e-002 
-4.460737e-002 
-4.441259e-002 
-4.442717e-002 
-4.452738e-002 
-4.439417e-002 
-4.429149e-002 
-4.440403e-002 
-4.439130e-002 
-4.420680e-002 
-4.423664e-002 
-4.435241e-002 
-4.422111e-002 
-4.410848e-002 
-4.426769e-002 
-4.427859e-002 
-4.407854e-002 
-4.411707e-002 
-4.427103e-002 
-4.411966e-002 
-4.396360e-002 
-4.412255e-002 
-4.418664e-002 
-4.398435e-002 
-4.397697e-002 
-4.415753e-002 
-4.406032e-002 
-4.390970e-002 
-4.404414e-002 
-4.410375e-002 
-4.392218e-002 
-4.393572e-002 
-4.410106e-002 
-4.402488e-002 
-4.391019e-002 
-4.403677e-002 
-4.408269e-002 
-4.393439e-002 
-4.399268e-002 
-4.414601e-002 
-4.401572e-002 
-4.390552e-002 
-4.413797e-002 
-4.420217e-002 
-4.390295e-002 
-4.391672e-002 
-4.426435e-002 
-4.415445e-002 
-4.378614e-002 
-4.399864e-002 
-4.433371e-002 
-4.405112e-002 
-4.379270e-002 
-4.413990e-002 
-4.428535e-002 
-4.391884e-002 
-4.389592e-002 
-4.424219e-002 
-4.413897e-002 
-4.386536e-002 
-4.407776e-002 
-4.427680e-002 
-4.403512e-002 
-4.401020e-002 
-4.431165e-002 
-4.423345e-002 
-4.399410e-002 
-4.423032e-002 
-4.442613e-002 
-4.411400e-002 
-4.402937e-002 
-4.440093e-002 
-4.435676e-002 
-4.396396e-002 
-4.409387e-002 
-4.438910e-002 
-4.412366e-002 
-4.389423e-002 
-4.420296e-002 
-4.429279e-002 
-4.395872e-002 
-4.399091e-002 
-4.430701e-002 
-4.415618e-002 
-4.390187e-002 
-4.413944e-002 
-4.431366e-002 
-4.400396e-002 
-4.392163e-002 
-4.423315e-002 
-4.419217e-002 
-4.390841e-002 
-4.405020e-002 
-4.427449e-002 
-4.405720e-002 
-4.392618e-002 
-4.420275e-002 
-4.424124e-002 
-4.396965e-002 
-4.401522e-002 
-4.424566e-002 
-4.411893e-002 
-4.396098e-002 
-4.414248e-002 
-4.421447e-002 
-4.402668e-002 
-4.407273e-002 
-4.423932e-002 
-4.412258e-002 
-4.401738e-002 
-4.420163e-002 
-4.422921e-002 
-4.401279e-002 
-4.407921e-002 
-4.431396e-002 
-4.418559e-002 
-4.399988e-002 
-4.421403e-002 
-4.434970e-002 
-4.411251e-002 
-4.405789e-002 
-4.429729e-002 
-4.427103e-002 
-4.404302e-002 
-4.413800e-002 
-4.431277e-002 
-4.414600e-002 
-4.403888e-002 
-4.424547e-002 
-4.429147e-002 
-4.408363e-002 
-4.413935e-002 
-4.436007e-002 
-4.428512e-002 
-4.412281e-002 
-4.428060e-002 
-4.442023e-002 
-4.425926e-002 
-4.417359e-002 
-4.433029e-002 
-4.432590e-002 
-4.415811e-002 
-4.419446e-002 
-4.429147e-002 
-4.416653e-002 
-4.407262e-002 
-4.420605e-002 
-4.423982e-002 
-4.403434e-002 
-4.402109e-002 
-4.422358e-002 
-4.419974e-002 
-4.402732e-002 
-4.409657e-002 
-4.422683e-002 
-4.415373e-002 
-4.410051e-002 
-4.420879e-002 
-4.422993e-002 
-4.416123e-002 
-4.421425e-002 
-4.428745e-002 
-4.420215e-002 
-4.418481e-002 
-4.430504e-002 
-4.427951e-002 
-4.413882e-002 
-4.419997e-002 
-4.429976e-002 
-4.419168e-002 
-4.412906e-002 
-4.426051e-002 
-4.426720e-002 
-4.414520e-002 
-4.420294e-002 
-4.430645e-002 
-4.424944e-002 
-4.421786e-002 
-4.430433e-002 
-4.433831e-002 
-4.430138e-002 
-4.433647e-002 
-4.439536e-002 
-4.436552e-002 
-4.435730e-002 
-4.441128e-002 
-4.438574e-002 
-4.439782e-002 
-4.448280e-002 
-4.445356e-002 
-4.437719e-002 
-4.447215e-002 
-4.456676e-002 
-4.446608e-002 
-4.443878e-002 
-4.457500e-002 
-4.460186e-002 
-4.451383e-002 
-4.454976e-002 
-4.462230e-002 
-4.457220e-002 
-4.457120e-002 
-4.467938e-002 
-4.465590e-002 
-4.456541e-002 
-4.465298e-002 
-4.473339e-002 
-4.462783e-002 
-4.460379e-002 
-4.472331e-002 
-4.469512e-002 
-4.459464e-002 
-4.467381e-002 
-4.476157e-002 
-4.465980e-002 
-4.463618e-002 
-4.475990e-002 
-4.475677e-002 
-4.464898e-002 
-4.471996e-002 
-4.480585e-002 
-4.471211e-002 
-4.464635e-002 
-4.474712e-002 
-4.476297e-002 
-4.467150e-002 
-4.469279e-002 
-4.478177e-002 
-4.472331e-002 
-4.466420e-002 
-4.473989e-002 
-4.476291e-002 
-4.466774e-002 
-4.466303e-002 
-4.474432e-002 
-4.470277e-002 
-4.461132e-002 
-4.467618e-002 
-4.474535e-002 
-4.466270e-002 
-4.461232e-002 
-4.469831e-002 
-4.472838e-002 
-4.461463e-002 
-4.460778e-002 
-4.470991e-002 
-4.469757e-002 
-4.459297e-002 
-4.463756e-002 
-4.474398e-002 
-4.470145e-002 
-4.462190e-002 
-4.466772e-002 
-4.466772e-002 
1.110223e-016 
-4.741345e-002 
-4.660141e-002 
-4.579748e-002 
-4.521485e-002 
-4.654559e-002 
-4.660315e-002 
-4.564491e-002 
-4.576265e-002 
-4.664843e-002 
-4.616401e-002 
-4.552642e-002 
-4.594502e-002 
-4.683825e-002 
-4.587849e-002 
-4.523375e-002 
-4.669013e-002 
-4.654147e-002 
-4.532681e-002 
-4.599886e-002 
-4.663597e-002 
-4.585965e-002 
-4.566820e-002 
-4.624037e-002 
-4.621014e-002 
-4.582731e-002 
-4.580582e-002 
-4.606808e-002 
-4.619216e-002 
-4.587943e-002 
-4.563847e-002 
-4.615439e-002 
-4.631059e-002 
-4.553869e-002 
-4.573821e-002 
-4.658696e-002 
-4.587711e-002 
-4.532253e-002 
-4.642682e-002 
-4.640055e-002 
-4.525576e-002 
-4.589736e-002 
-4.671786e-002 
-4.566141e-002 
-4.539161e-002 
-4.660012e-002 
-4.617163e-002 
-4.529817e-002 
-4.610441e-002 
-4.645402e-002 
-4.550888e-002 
-4.590454e-002 
-4.625024e-002 
-4.568235e-002 
-4.602635e-002 
-4.598393e-002 
-4.567662e-002 
-4.612043e-002 
-4.597470e-002 
-4.549403e-002 
-4.610595e-002 
-4.617174e-002 
-4.532634e-002 
-4.583629e-002 
-4.645550e-002 
-4.548862e-002 
-4.528876e-002 
-4.652698e-002 
-4.585455e-002 
-4.502639e-002 
-4.610388e-002 
-4.611980e-002 
-4.517654e-002 
-4.558905e-002 
-4.603831e-002 
-4.544610e-002 
-4.536020e-002 
-4.561072e-002 
-4.566490e-002 
-4.537467e-002 
-4.527313e-002 
-4.552932e-002 
-4.557531e-002 
-4.513709e-002 
-4.511713e-002 
-4.555856e-002 
-4.534895e-002 
-4.484562e-002 
-4.504945e-002 
-4.551359e-002 
-4.495431e-002 
-4.456380e-002 
-4.535506e-002 
-4.531779e-002 
-4.430323e-002 
-4.467092e-002 
-4.529779e-002 
-4.444042e-002 
-4.429687e-002 
-4.518686e-002 
-4.461559e-002 
-4.357969e-002 
-4.449067e-002 
-4.515565e-002 
-4.377018e-002 
-4.328780e-002 
-4.480007e-002 
-4.474858e-002 
-4.305909e-002 
-4.357781e-002 
-4.494682e-002 
-4.377751e-002 
-4.253050e-002 
-4.391434e-002 
-4.437882e-002 
-4.268338e-002 
-4.289886e-002 
-4.408264e-002 
-4.324979e-002 
-4.238245e-002 
-4.297718e-002 
-4.394782e-002 
-4.223868e-002 
-4.183536e-002 
-4.383248e-002 
-4.250909e-002 
-4.161902e-002 
-4.283765e-002 
-4.310182e-002 
-4.149702e-002 
-4.176379e-002 
-4.295903e-002 
-4.188455e-002 
-4.102977e-002 
-4.209356e-002 
-4.241444e-002 
-4.106851e-002 
-4.123223e-002 
-4.211809e-002 
-4.154205e-002 
-4.061884e-002 
-4.141616e-002 
-4.162458e-002 
-4.073322e-002 
-4.067181e-002 
-4.127559e-002 
-4.079294e-002 
-4.044883e-002 
-4.091418e-002 
-4.087098e-002 
-4.046796e-002 
-4.062356e-002 
-4.068737e-002 
-4.012864e-002 
-4.008254e-002 
-4.066953e-002 
-4.028404e-002 
-3.997551e-002 
-4.058405e-002 
-4.033795e-002 
-3.977471e-002 
-3.997730e-002 
-4.019045e-002 
-4.004669e-002 
-4.004374e-002 
-4.025984e-002 
-4.031547e-002 
-3.996756e-002 
-3.979780e-002 
-4.011354e-002 
-4.024474e-002 
-4.007383e-002 
-4.010700e-002 
-4.037169e-002 
-4.039683e-002 
-4.020959e-002 
-4.038097e-002 
-4.067191e-002 
-4.047437e-002 
-4.022272e-002 
-4.055245e-002 
-4.062520e-002 
-4.020559e-002 
-4.039184e-002 
-4.101939e-002 
-4.074403e-002 
-4.020719e-002 
-4.071874e-002 
-4.099426e-002 
-4.024570e-002 
-4.024772e-002 
-4.108681e-002 
-4.070487e-002 
-3.998310e-002 
-4.070379e-002 
-4.117662e-002 
-4.021702e-002 
-4.009588e-002 
-4.108311e-002 
-4.083359e-002 
-3.999519e-002 
-4.054512e-002 
-4.118841e-002 
-4.039831e-002 
-4.003382e-002 
-4.089182e-002 
-4.089706e-002 
-3.998032e-002 
-4.024930e-002 
-4.102908e-002 
-4.055288e-002 
-4.005561e-002 
-4.070090e-002 
-4.095038e-002 
-4.013848e-002 
-4.007770e-002 
-4.077211e-002 
-4.049574e-002 
-3.980062e-002 
-4.029920e-002 
-4.080581e-002 
-3.997762e-002 
-3.954270e-002 
-4.009997e-002 
-3.979943e-002 
-3.875589e-002 
-3.848778e-002 
-3.858561e-002 
-3.791429e-002 
-3.727281e-002 
-3.755971e-002 
-3.774515e-002 
-3.742169e-002 
-3.768399e-002 
-3.850247e-002 
-3.881579e-002 
-3.898499e-002 
-3.994561e-002 
-4.097129e-002 
-4.132385e-002 
-4.198084e-002 
-4.322714e-002 
-4.381033e-002 
-4.387153e-002 
-4.455314e-002 
-4.519247e-002 
-4.490083e-002 
-4.478796e-002 
-4.534587e-002 
-4.530611e-002 
-4.471499e-002 
-4.488305e-002 
-4.524964e-002 
-4.478083e-002 
-4.445919e-002 
-4.490714e-002 
-4.492540e-002 
-4.435836e-002 
-4.444399e-002 
-4.486998e-002 
-4.451912e-002 
-4.413459e-002 
-4.452308e-002 
-4.465263e-002 
-4.412060e-002 
-4.410377e-002 
-4.457757e-002 
-4.436130e-002 
-4.392677e-002 
-4.427272e-002 
-4.454305e-002 
-4.402573e-002 
-4.385982e-002 
-4.438179e-002 
-4.430679e-002 
-4.377116e-002 
-4.398018e-002 
-4.442231e-002 
-4.401119e-002 
-4.366809e-002 
-4.418133e-002 
-4.434011e-002 
-4.376876e-002 
-4.380411e-002 
-4.434611e-002 
-4.409813e-002 
-4.363498e-002 
-4.406115e-002 
-4.435956e-002 
-4.382507e-002 
-4.372637e-002 
-4.432223e-002 
-4.419005e-002 
-4.360255e-002 
-4.394509e-002 
-4.443003e-002 
-4.392683e-002 
-4.362000e-002 
-4.424897e-002 
-4.433955e-002 
-4.368914e-002 
-4.382371e-002 
-4.442602e-002 
-4.411742e-002 
-4.366317e-002 
-4.410876e-002 
-4.436007e-002 
-4.385175e-002 
-4.378979e-002 
-4.431182e-002 
-4.415903e-002 
-4.371914e-002 
-4.405596e-002 
-4.438599e-002 
-4.395262e-002 
-4.380317e-002 
-4.430105e-002 
-4.428065e-002 
-4.380881e-002 
-4.399789e-002 
-4.440860e-002 
-4.411756e-002 
-4.383669e-002 
-4.423216e-002 
-4.439600e-002 
-4.398879e-002 
-4.399556e-002 
-4.439331e-002 
-4.422766e-002 
-4.389440e-002 
-4.417593e-002 
-4.440602e-002 
-4.404346e-002 
-4.394676e-002 
-4.431775e-002 
-4.426223e-002 
-4.389854e-002 
-4.404755e-002 
-4.430494e-002 
-4.403788e-002 
-4.386598e-002 
-4.418084e-002 
-4.423607e-002 
-4.392499e-002 
-4.399391e-002 
-4.426888e-002 
-4.409174e-002 
-4.389845e-002 
-4.415221e-002 
-4.425133e-002 
-4.395459e-002 
-4.396094e-002 
-4.424951e-002 
-4.415370e-002 
-4.388709e-002 
-4.407619e-002 
-4.427640e-002 
-4.403897e-002 
-4.392332e-002 
-4.418791e-002 
-4.422491e-002 
-4.398297e-002 
-4.400995e-002 
-4.419820e-002 
-4.410383e-002 
-4.396970e-002 
-4.409482e-002 
-4.418318e-002 
-4.407316e-002 
-4.407638e-002 
-4.417529e-002 
-4.416209e-002 
-4.411507e-002 
-4.416790e-002 
-4.418673e-002 
-4.414436e-002 
-4.417214e-002 
-4.421318e-002 
-4.417141e-002 
-4.415946e-002 
-4.421320e-002 
-4.421474e-002 
-4.416320e-002 
-4.419011e-002 
-4.421977e-002 
-4.418450e-002 
-4.418548e-002 
-4.424296e-002 
-4.422370e-002 
-4.417761e-002 
-4.423024e-002 
-4.426717e-002 
-4.419197e-002 
-4.414950e-002 
-4.421024e-002 
-4.425095e-002 
-4.421122e-002 
-4.415901e-002 
-4.417675e-002 
-4.423880e-002 
-4.423482e-002 
-4.416449e-002 
-4.414855e-002 
-4.422623e-002 
-4.422956e-002 
-4.412132e-002 
-4.411567e-002 
-4.419922e-002 
-4.417101e-002 
-4.410393e-002 
-4.419377e-002 
-4.423714e-002 
-4.412372e-002 
-4.411710e-002 
-4.427055e-002 
-4.423896e-002 
-4.408826e-002 
-4.415319e-002 
-4.429376e-002 
-4.418721e-002 
-4.406304e-002 
-4.421338e-002 
-4.429732e-002 
-4.415176e-002 
-4.414593e-002 
-4.429463e-002 
-4.423114e-002 
-4.411249e-002 
-4.423585e-002 
-4.433713e-002 
-4.418094e-002 
-4.413799e-002 
-4.435158e-002 
-4.436211e-002 
-4.420176e-002 
-4.425645e-002 
-4.440384e-002 
-4.435260e-002 
-4.426246e-002 
-4.436809e-002 
-4.443853e-002 
-4.432261e-002 
-4.431418e-002 
-4.445013e-002 
-4.444390e-002 
-4.435115e-002 
-4.442529e-002 
-4.454921e-002 
-4.449442e-002 
-4.439095e-002 
-4.448870e-002 
-4.455483e-002 
-4.446881e-002 
-4.443381e-002 
-4.453579e-002 
-4.455388e-002 
-4.448900e-002 
-4.453076e-002 
-4.461646e-002 
-4.455637e-002 
-4.451236e-002 
-4.462475e-002 
-4.463855e-002 
-4.453999e-002 
-4.459273e-002 
-4.470991e-002 
-4.463761e-002 
-4.454593e-002 
-4.466317e-002 
-4.472010e-002 
-4.459029e-002 
-4.461398e-002 
-4.478968e-002 
-4.471245e-002 
-4.459270e-002 
-4.473228e-002 
-4.482765e-002 
-4.466876e-002 
-4.464462e-002 
-4.482992e-002 
-4.478580e-002 
-4.463181e-002 
-4.473405e-002 
-4.485109e-002 
-4.469316e-002 
-4.461797e-002 
-4.476719e-002 
-4.476955e-002 
-4.460539e-002 
-4.466969e-002 
-4.478000e-002 
-4.466938e-002 
-4.457853e-002 
-4.472110e-002 
-4.473992e-002 
-4.459029e-002 
-4.460393e-002 
-4.473597e-002 
-4.464459e-002 
-4.453860e-002 
-4.465242e-002 
-4.472809e-002 
-4.459199e-002 
-4.455018e-002 
-4.468402e-002 
-4.469620e-002 
-4.455638e-002 
-4.458009e-002 
-4.472127e-002 
-4.467668e-002 
-4.454276e-002 
-4.454276e-002 
1.110223e-016 
-4.525604e-002 
-4.859513e-002 
-4.621381e-002 
-4.441023e-002 
-4.649249e-002 
-4.749214e-002 
-4.573809e-002 
-4.497068e-002 
-4.675328e-002 
-4.696510e-002 
-4.537364e-002 
-4.565148e-002 
-4.685503e-002 
-4.614892e-002 
-4.542910e-002 
-4.630856e-002 
-4.659794e-002 
-4.554046e-002 
-4.578232e-002 
-4.673006e-002 
-4.592775e-002 
-4.542909e-002 
-4.647737e-002 
-4.626015e-002 
-4.539004e-002 
-4.612359e-002 
-4.651187e-002 
-4.545386e-002 
-4.569862e-002 
-4.663369e-002 
-4.582696e-002 
-4.531680e-002 
-4.645954e-002 
-4.631600e-002 
-4.522871e-002 
-4.601164e-002 
-4.674750e-002 
-4.553238e-002 
-4.541750e-002 
-4.674201e-002 
-4.625589e-002 
-4.502619e-002 
-4.615528e-002 
-4.692883e-002 
-4.536054e-002 
-4.525834e-002 
-4.703290e-002 
-4.610943e-002 
-4.474970e-002 
-4.653668e-002 
-4.682433e-002 
-4.482056e-002 
-4.578870e-002 
-4.705166e-002 
-4.538970e-002 
-4.519386e-002 
-4.669505e-002 
-4.616782e-002 
-4.510721e-002 
-4.585745e-002 
-4.656769e-002 
-4.566131e-002 
-4.523807e-002 
-4.621483e-002 
-4.629130e-002 
-4.521325e-002 
-4.563286e-002 
-4.645394e-002 
-4.551824e-002 
-4.519488e-002 
-4.620863e-002 
-4.589501e-002 
-4.505018e-002 
-4.572368e-002 
-4.598487e-002 
-4.525856e-002 
-4.531354e-002 
-4.579224e-002 
-4.549807e-002 
-4.524048e-002 
-4.550762e-002 
-4.547866e-002 
-4.528795e-002 
-4.537216e-002 
-4.530802e-002 
-4.512765e-002 
-4.531399e-002 
-4.525176e-002 
-4.493360e-002 
-4.515524e-002 
-4.529415e-002 
-4.475576e-002 
-4.483643e-002 
-4.530856e-002 
-4.471393e-002 
-4.443248e-002 
-4.527395e-002 
-4.486690e-002 
-4.385363e-002 
-4.467862e-002 
-4.529216e-002 
-4.398456e-002 
-4.364181e-002 
-4.477736e-002 
-4.463608e-002 
-4.363620e-002 
-4.388398e-002 
-4.440410e-002 
-4.391428e-002 
-4.359712e-002 
-4.394901e-002 
-4.369788e-002 
-4.334107e-002 
-4.368498e-002 
-4.356967e-002 
-4.293271e-002 
-4.327033e-002 
-4.374982e-002 
-4.298577e-002 
-4.249580e-002 
-4.324624e-002 
-4.339149e-002 
-4.196958e-002 
-4.249689e-002 
-4.352782e-002 
-4.204653e-002 
-4.175531e-002 
-4.304749e-002 
-4.268599e-002 
-4.123339e-002 
-4.205641e-002 
-4.270509e-002 
-4.146448e-002 
-4.121650e-002 
-4.240210e-002 
-4.183033e-002 
-4.081971e-002 
-4.171111e-002 
-4.213342e-002 
-4.080595e-002 
-4.079754e-002 
-4.197991e-002 
-4.118856e-002 
-4.014694e-002 
-4.120334e-002 
-4.167581e-002 
-4.018196e-002 
-4.019235e-002 
-4.161485e-002 
-4.092454e-002 
-3.960611e-002 
-4.059035e-002 
-4.129459e-002 
-3.992590e-002 
-3.960109e-002 
-4.096763e-002 
-4.068847e-002 
-3.958500e-002 
-4.011860e-002 
-4.067419e-002 
-3.988675e-002 
-3.951878e-002 
-4.032055e-002 
-4.061992e-002 
-3.991407e-002 
-3.974446e-002 
-4.033663e-002 
-4.016756e-002 
-3.965602e-002 
-4.010748e-002 
-4.062521e-002 
-4.014736e-002 
-3.984215e-002 
-4.047009e-002 
-4.076182e-002 
-4.017674e-002 
-4.018853e-002 