# vtk DataFile Version 2.0
2D-ADE data file 
ASCII
DATASET RECTILINEAR_GRID
DIMENSIONS 512 128 1
X_COORDINATES 512 int
0 1 2 3 4 5 6 7 8 9 10 11 12 13 14 15 16 17 18 19 20 21 22 23 24 25 26 27 28 29 30 31 32 33 34 35 36 37 38 39 40 41 42 43 44 45 46 47 48 49 50 51 52 53 54 55 56 57 58 59 60 61 62 63 64 65 66 67 68 69 70 71 72 73 74 75 76 77 78 79 80 81 82 83 84 85 86 87 88 89 90 91 92 93 94 95 96 97 98 99 100 101 102 103 104 105 106 107 108 109 110 111 112 113 114 115 116 117 118 119 120 121 122 123 124 125 126 127 128 129 130 131 132 133 134 135 136 137 138 139 140 141 142 143 144 145 146 147 148 149 150 151 152 153 154 155 156 157 158 159 160 161 162 163 164 165 166 167 168 169 170 171 172 173 174 175 176 177 178 179 180 181 182 183 184 185 186 187 188 189 190 191 192 193 194 195 196 197 198 199 200 201 202 203 204 205 206 207 208 209 210 211 212 213 214 215 216 217 218 219 220 221 222 223 224 225 226 227 228 229 230 231 232 233 234 235 236 237 238 239 240 241 242 243 244 245 246 247 248 249 250 251 252 253 254 255 256 257 258 259 260 261 262 263 264 265 266 267 268 269 270 271 272 273 274 275 276 277 278 279 280 281 282 283 284 285 286 287 288 289 290 291 292 293 294 295 296 297 298 299 300 301 302 303 304 305 306 307 308 309 310 311 312 313 314 315 316 317 318 319 320 321 322 323 324 325 326 327 328 329 330 331 332 333 334 335 336 337 338 339 340 341 342 343 344 345 346 347 348 349 350 351 352 353 354 355 356 357 358 359 360 361 362 363 364 365 366 367 368 369 370 371 372 373 374 375 376 377 378 379 380 381 382 383 384 385 386 387 388 389 390 391 392 393 394 395 396 397 398 399 400 401 402 403 404 405 406 407 408 409 410 411 412 413 414 415 416 417 418 419 420 421 422 423 424 425 426 427 428 429 430 431 432 433 434 435 436 437 438 439 440 441 442 443 444 445 446 447 448 449 450 451 452 453 454 455 456 457 458 459 460 461 462 463 464 465 466 467 468 469 470 471 472 473 474 475 476 477 478 479 480 481 482 483 484 485 486 487 488 489 490 491 492 493 494 495 496 497 498 499 500 501 502 503 504 505 506 507 508 509 510 511 
Y_COORDINATES 128 int
0 1 2 3 4 5 6 7 8 9 10 11 12 13 14 15 16 17 18 19 20 21 22 23 24 25 26 27 28 29 30 31 32 33 34 35 36 37 38 39 40 41 42 43 44 45 46 47 48 49 50 51 52 53 54 55 56 57 58 59 60 61 62 63 64 65 66 67 68 69 70 71 72 73 74 75 76 77 78 79 80 81 82 83 84 85 86 87 88 89 90 91 92 93 94 95 96 97 98 99 100 101 102 103 104 105 106 107 108 109 110 111 112 113 114 115 116 117 118 119 120 121 122 123 124 125 126 127 
Z_COORDINATES 1 int
0
POINT_DATA 65536 
SCALARS density double 1
LOOKUP_TABLE default
-1.999037e-002 
-3.002723e-002 
-2.658705e-002 
-2.611893e-002 
-2.629052e-002 
-2.622041e-002 
-2.629491e-002 
-2.628897e-002 
-2.628005e-002 
-2.619292e-002 
-2.633655e-002 
-2.628566e-002 
-2.627845e-002 
-2.621543e-002 
-2.629194e-002 
-2.637942e-002 
-2.620948e-002 
-2.624160e-002 
-2.639796e-002 
-2.626950e-002 
-2.625224e-002 
-2.635730e-002 
-2.632279e-002 
-2.629868e-002 
-2.634039e-002 
-2.631329e-002 
-2.635506e-002 
-2.638699e-002 
-2.629912e-002 
-2.632779e-002 
-2.645908e-002 
-2.635055e-002 
-2.625535e-002 
-2.646430e-002 
-2.645766e-002 
-2.621597e-002 
-2.637366e-002 
-2.655390e-002 
-2.628219e-002 
-2.623273e-002 
-2.654808e-002 
-2.642883e-002 
-2.617176e-002 
-2.641177e-002 
-2.658024e-002 
-2.620403e-002 
-2.625947e-002 
-2.659842e-002 
-2.637064e-002 
-2.611698e-002 
-2.655831e-002 
-2.647622e-002 
-2.613758e-002 
-2.646254e-002 
-2.648882e-002 
-2.624134e-002 
-2.639041e-002 
-2.645577e-002 
-2.631515e-002 
-2.637410e-002 
-2.639428e-002 
-2.635932e-002 
-2.636180e-002 
-2.637265e-002 
-2.634612e-002 
-2.632758e-002 
-2.641060e-002 
-2.627483e-002 
-2.632529e-002 
-2.639764e-002 
-2.627312e-002 
-2.627577e-002 
-2.639603e-002 
-2.628378e-002 
-2.624975e-002 
-2.636014e-002 
-2.628587e-002 
-2.626301e-002 
-2.629262e-002 
-2.626910e-002 
-2.626417e-002 
-2.625892e-002 
-2.620346e-002 
-2.626565e-002 
-2.622956e-002 
-2.616371e-002 
-2.620999e-002 
-2.622595e-002 
-2.612803e-002 
-2.612350e-002 
-2.617316e-002 
-2.613559e-002 
-2.607306e-002 
-2.609855e-002 
-2.615148e-002 
-2.603923e-002 
-2.597187e-002 
-2.608996e-002 
-2.609125e-002 
-2.592011e-002 
-2.595544e-002 
-2.610343e-002 
-2.594019e-002 
-2.577210e-002 
-2.599498e-002 
-2.605498e-002 
-2.577478e-002 
-2.574844e-002 
-2.599872e-002 
-2.591964e-002 
-2.569145e-002 
-2.578571e-002 
-2.593945e-002 
-2.577883e-002 
-2.565515e-002 
-2.584499e-002 
-2.582349e-002 
-2.566054e-002 
-2.565688e-002 
-2.583506e-002 
-2.579122e-002 
-2.542045e-002 
-2.589816e-002 
-2.582727e-002 
-2.539293e-002 
-2.577613e-002 
-2.583252e-002 
-2.556364e-002 
-2.555140e-002 
-2.588470e-002 
-2.567321e-002 
-2.548290e-002 
-2.571108e-002 
-2.581008e-002 
-2.552622e-002 
-2.557230e-002 
-2.583979e-002 
-2.568518e-002 
-2.550386e-002 
-2.574112e-002 
-2.581865e-002 
-2.550130e-002 
-2.561330e-002 
-2.588903e-002 
-2.568580e-002 
-2.553388e-002 
-2.585411e-002 
-2.587337e-002 
-2.558236e-002 
-2.575332e-002 
-2.601526e-002 
-2.577183e-002 
-2.569203e-002 
-2.602207e-002 
-2.596632e-002 
-2.574005e-002 
-2.597020e-002 
-2.609000e-002 
-2.590197e-002 
-2.592431e-002 
-2.610552e-002 
-2.605001e-002 
-2.597184e-002 
-2.607090e-002 
-2.614726e-002 
-2.609198e-002 
-2.607108e-002 
-2.616907e-002 
-2.620549e-002 
-2.612542e-002 
-2.615637e-002 
-2.626923e-002 
-2.623595e-002 
-2.617636e-002 
-2.627020e-002 
-2.633412e-002 
-2.623669e-002 
-2.624825e-002 
-2.637352e-002 
-2.634238e-002 
-2.624853e-002 
-2.633728e-002 
-2.641020e-002 
-2.632174e-002 
-2.628863e-002 
-2.639425e-002 
-2.640142e-002 
-2.631643e-002 
-2.633375e-002 
-2.642019e-002 
-2.638470e-002 
-2.631448e-002 
-2.637179e-002 
-2.643416e-002 
-2.635549e-002 
-2.631277e-002 
-2.642350e-002 
-2.642544e-002 
-2.630882e-002 
-2.635906e-002 
-2.647502e-002 
-2.637161e-002 
-2.630542e-002 
-2.645282e-002 
-2.646146e-002 
-2.632554e-002 
-2.637985e-002 
-2.649810e-002 
-2.640374e-002 
-2.632154e-002 
-2.644026e-002 
-2.647034e-002 
-2.632459e-002 
-2.632671e-002 
-2.645156e-002 
-2.638602e-002 
-2.627013e-002 
-2.636145e-002 
-2.644002e-002 
-2.634565e-002 
-2.633545e-002 
-2.647753e-002 
-2.649973e-002 
-2.642210e-002 
-2.648259e-002 
-2.658606e-002 
-2.652847e-002 
-2.645580e-002 
-2.653459e-002 
-2.656501e-002 
-2.644823e-002 
-2.641508e-002 
-2.649874e-002 
-2.644063e-002 
-2.629963e-002 
-2.630195e-002 
-2.630276e-002 
-2.616236e-002 
-2.606166e-002 
-2.608893e-002 
-2.605547e-002 
-2.593922e-002 
-2.594768e-002 
-2.603561e-002 
-2.600762e-002 
-2.598128e-002 
-2.610959e-002 
-2.620144e-002 
-2.616965e-002 
-2.624569e-002 
-2.640806e-002 
-2.642480e-002 
-2.641029e-002 
-2.654548e-002 
-2.663600e-002 
-2.658244e-002 
-2.661323e-002 
-2.673517e-002 
-2.671713e-002 
-2.664704e-002 
-2.671735e-002 
-2.676980e-002 
-2.668321e-002 
-2.666121e-002 
-2.674794e-002 
-2.672475e-002 
-2.663600e-002 
-2.667790e-002 
-2.673675e-002 
-2.666018e-002 
-2.661077e-002 
-2.668480e-002 
-2.668851e-002 
-2.659515e-002 
-2.660024e-002 
-2.666822e-002 
-2.662170e-002 
-2.655138e-002 
-2.659577e-002 
-2.662581e-002 
-2.655114e-002 
-2.652519e-002 
-2.657944e-002 
-2.656253e-002 
-2.648905e-002 
-2.650274e-002 
-2.654203e-002 
-2.648513e-002 
-2.643369e-002 
-2.647005e-002 
-2.647300e-002 
-2.639599e-002 
-2.638130e-002 
-2.641479e-002 
-2.637369e-002 
-2.630615e-002 
-2.632388e-002 
-2.632698e-002 
-2.625223e-002 
-2.622399e-002 
-2.625057e-002 
-2.620620e-002 
-2.614244e-002 
-2.615959e-002 
-2.615985e-002 
-2.609493e-002 
-2.608138e-002 
-2.611339e-002 
-2.608185e-002 
-2.603762e-002 
-2.606557e-002 
-2.608136e-002 
-2.603528e-002 
-2.602721e-002 
-2.606827e-002 
-2.605363e-002 
-2.601222e-002 
-2.603422e-002 
-2.605783e-002 
-2.601409e-002 
-2.599378e-002 
-2.602987e-002 
-2.601905e-002 
-2.596376e-002 
-2.597417e-002 
-2.600027e-002 
-2.595012e-002 
-2.590514e-002 
-2.593674e-002 
-2.593301e-002 
-2.586988e-002 
-2.585839e-002 
-2.589458e-002 
-2.586922e-002 
-2.581665e-002 
-2.582859e-002 
-2.585164e-002 
-2.580791e-002 
-2.577742e-002 
-2.579994e-002 
-2.579329e-002 
-2.574233e-002 
-2.574072e-002 
-2.575119e-002 
-2.572619e-002 
-2.569613e-002 
-2.570166e-002 
-2.569061e-002 
-2.565420e-002 
-2.563596e-002 
-2.563578e-002 
-2.560732e-002 
-2.557062e-002 
-2.556522e-002 
-2.556060e-002 
-2.552339e-002 
-2.549046e-002 
-2.549396e-002 
-2.548097e-002 
-2.544118e-002 
-2.541815e-002 
-2.541976e-002 
-2.539872e-002 
-2.536069e-002 
-2.534718e-002 
-2.534655e-002 
-2.531759e-002 
-2.528434e-002 
-2.528532e-002 
-2.527731e-002 
-2.524093e-002 
-2.522311e-002 
-2.523357e-002 
-2.520768e-002 
-2.517432e-002 
-2.518080e-002 
-2.518064e-002 
-2.514102e-002 
-2.512976e-002 
-2.514710e-002 
-2.512460e-002 
-2.509239e-002 
-2.510649e-002 
-2.510853e-002 
-2.507409e-002 
-2.506864e-002 
-2.508212e-002 
-2.506175e-002 
-2.504186e-002 
-2.505102e-002 
-2.504579e-002 
-2.502483e-002 
-2.502379e-002 
-2.502668e-002 
-2.501076e-002 
-2.500286e-002 
-2.500629e-002 
-2.499838e-002 
-2.498631e-002 
-2.498857e-002 
-2.498633e-002 
-2.497684e-002 
-2.497460e-002 
-2.497830e-002 
-2.497352e-002 
-2.497036e-002 
-2.497328e-002 
-2.497593e-002 
-2.497544e-002 
-2.497822e-002 
-2.498311e-002 
-2.499005e-002 
-2.499540e-002 
-2.500021e-002 
-2.501004e-002 
-2.502447e-002 
-2.503140e-002 
-2.503865e-002 
-2.505982e-002 
-2.507462e-002 
-2.507810e-002 
-2.509612e-002 
-2.511926e-002 
-2.512369e-002 
-2.512977e-002 
-2.515308e-002 
-2.516186e-002 
-2.516208e-002 
-2.517741e-002 
-2.519341e-002 
-2.519279e-002 
-2.519600e-002 
-2.520428e-002 
-2.519678e-002 
-2.517974e-002 
-2.518502e-002 
-2.519554e-002 
-2.521500e-002 
-2.526170e-002 
-2.533522e-002 
-2.539447e-002 
-2.545182e-002 
-2.549140e-002 
-2.551518e-002 
-2.551659e-002 
-2.551878e-002 
-2.552351e-002 
-2.551211e-002 
-2.550912e-002 
-2.552020e-002 
-2.551944e-002 
-2.551095e-002 
-2.553251e-002 
-2.554623e-002 
-2.554351e-002 
-2.555020e-002 
-2.557409e-002 
-2.556933e-002 
-2.556626e-002 
-2.557430e-002 
-2.558941e-002 
-2.556738e-002 
-2.557768e-002 
-2.558035e-002 
-2.558072e-002 
-2.556328e-002 
-2.557511e-002 
-2.557362e-002 
-2.555600e-002 
-2.555564e-002 
-2.555846e-002 
-2.554496e-002 
-2.553038e-002 
-2.554408e-002 
-2.553116e-002 
-2.551439e-002 
-2.550725e-002 
-2.551277e-002 
-2.548657e-002 
-2.547632e-002 
-2.547810e-002 
-2.546643e-002 
-2.544435e-002 
-2.544315e-002 
-2.543472e-002 
-2.541714e-002 
-2.540527e-002 
-2.540460e-002 
-2.538785e-002 
-2.537348e-002 
-2.536762e-002 
-2.535943e-002 
-2.534279e-002 
-2.533582e-002 
-2.532788e-002 
-2.531514e-002 
-2.530373e-002 
-2.529778e-002 
-2.528447e-002 
-2.527421e-002 
-2.526770e-002 
-2.525758e-002 
-2.524398e-002 
-2.523793e-002 
-2.523004e-002 
-2.521671e-002 
-2.520752e-002 
-2.520415e-002 
-2.519150e-002 
-2.517945e-002 
-2.518719e-002 
-1.955142e-002 
1.110223e-016 
-4.802600e-002 
-4.179156e-002 
-4.488591e-002 
-4.839616e-002 
-4.596288e-002 
-4.429127e-002 
-4.630412e-002 
-4.711057e-002 
-4.520442e-002 
-4.518990e-002 
-4.693773e-002 
-4.632629e-002 
-4.491106e-002 
-4.605796e-002 
-4.694063e-002 
-4.573870e-002 
-4.526597e-002 
-4.668569e-002 
-4.658994e-002 
-4.530847e-002 
-4.618053e-002 
-4.703935e-002 
-4.579348e-002 
-4.572385e-002 
-4.702094e-002 
-4.651571e-002 
-4.570388e-002 
-4.670246e-002 
-4.692106e-002 
-4.594588e-002 
-4.643484e-002 
-4.715176e-002 
-4.626398e-002 
-4.612835e-002 
-4.708231e-002 
-4.670641e-002 
-4.600581e-002 
-4.677048e-002 
-4.702754e-002 
-4.608381e-002 
-4.629307e-002 
-4.723227e-002 
-4.658949e-002 
-4.573878e-002 
-4.691394e-002 
-4.726811e-002 
-4.577265e-002 
-4.615581e-002 
-4.763316e-002 
-4.622167e-002 
-4.562021e-002 
-4.758319e-002 
-4.671127e-002 
-4.548941e-002 
-4.715091e-002 
-4.725213e-002 
-4.567159e-002 
-4.642558e-002 
-4.742183e-002 
-4.633750e-002 
-4.582378e-002 
-4.697352e-002 
-4.698403e-002 
-4.577880e-002 
-4.624685e-002 
-4.704771e-002 
-4.628625e-002 
-4.565766e-002 
-4.658668e-002 
-4.677892e-002 
-4.561734e-002 
-4.598595e-002 
-4.684828e-002 
-4.597201e-002 
-4.558196e-002 
-4.654671e-002 
-4.624405e-002 
-4.552727e-002 
-4.600733e-002 
-4.618960e-002 
-4.564155e-002 
-4.567403e-002 
-4.578024e-002 
-4.562098e-002 
-4.563177e-002 
-4.544994e-002 
-4.528730e-002 
-4.553200e-002 
-4.535026e-002 
-4.470667e-002 
-4.493790e-002 
-4.546403e-002 
-4.493361e-002 
-4.448850e-002 
-4.508632e-002 
-4.475970e-002 
-4.366088e-002 
-4.438346e-002 
-4.559016e-002 
-4.438221e-002 
-4.295712e-002 
-4.388846e-002 
-4.479241e-002 
-4.395105e-002 
-4.334176e-002 
-4.347652e-002 
-4.357029e-002 
-4.370090e-002 
-4.364108e-002 
-4.293483e-002 
-4.285836e-002 
-4.369032e-002 
-4.336434e-002 
-4.228784e-002 
-4.281859e-002 
-4.370114e-002 
-4.253658e-002 
-4.192594e-002 
-4.298567e-002 
-4.321812e-002 
-4.195319e-002 
-4.194499e-002 
-4.372153e-002 
-4.236015e-002 
-4.108808e-002 
-4.299434e-002 
-4.325866e-002 
-4.152337e-002 
-4.208818e-002 
-4.335285e-002 
-4.192148e-002 
-4.138786e-002 
-4.303342e-002 
-4.281389e-002 
-4.115058e-002 
-4.215922e-002 
-4.358520e-002 
-4.220139e-002 
-4.129298e-002 
-4.279753e-002 
-4.302507e-002 
-4.161474e-002 
-4.216227e-002 
-4.341239e-002 
-4.255102e-002 
-4.198264e-002 
-4.326662e-002 
-4.339960e-002 
-4.230325e-002 
-4.300619e-002 
-4.415879e-002 
-4.330843e-002 
-4.290183e-002 
-4.409827e-002 
-4.410346e-002 
-4.337583e-002 
-4.419078e-002 
-4.472364e-002 
-4.393019e-002 
-4.405134e-002 
-4.496527e-002 
-4.473600e-002 
-4.426323e-002 
-4.487807e-002 
-4.532487e-002 
-4.489864e-002 
-4.493561e-002 
-4.553205e-002 
-4.544991e-002 
-4.512179e-002 
-4.557207e-002 
-4.602240e-002 
-4.569241e-002 
-4.552179e-002 
-4.606756e-002 
-4.631154e-002 
-4.587510e-002 
-4.591568e-002 
-4.652289e-002 
-4.644830e-002 
-4.593437e-002 
-4.627940e-002 
-4.680731e-002 
-4.635275e-002 
-4.603708e-002 
-4.665597e-002 
-4.682061e-002 
-4.620271e-002 
-4.631986e-002 
-4.686965e-002 
-4.660738e-002 
-4.625836e-002 
-4.659042e-002 
-4.676927e-002 
-4.647507e-002 
-4.646526e-002 
-4.668876e-002 
-4.663023e-002 
-4.646783e-002 
-4.666105e-002 
-4.679429e-002 
-4.658986e-002 
-4.654176e-002 
-4.685202e-002 
-4.686493e-002 
-4.661394e-002 
-4.671718e-002 
-4.695158e-002 
-4.677134e-002 
-4.655386e-002 
-4.675646e-002 
-4.684844e-002 
-4.648309e-002 
-4.631653e-002 
-4.663623e-002 
-4.666612e-002 
-4.622934e-002 
-4.625265e-002 
-4.678619e-002 
-4.683614e-002 
-4.664286e-002 
-4.704194e-002 
-4.746130e-002 
-4.728063e-002 
-4.724575e-002 
-4.765444e-002 
-4.764145e-002 
-4.719251e-002 
-4.723715e-002 
-4.749897e-002 
-4.713890e-002 
-4.672762e-002 
-4.687983e-002 
-4.673698e-002 
-4.601311e-002 
-4.564987e-002 
-4.559220e-002 
-4.503241e-002 
-4.440391e-002 
-4.437493e-002 
-4.434593e-002 
-4.398581e-002 
-4.399466e-002 
-4.445953e-002 
-4.459708e-002 
-4.463207e-002 
-4.519808e-002 
-4.576857e-002 
-4.593748e-002 
-4.630343e-002 
-4.695536e-002 
-4.726597e-002 
-4.738446e-002 
-4.780833e-002 
-4.819802e-002 
-4.823174e-002 
-4.832479e-002 
-4.862185e-002 
-4.866569e-002 
-4.848353e-002 
-4.853739e-002 
-4.870843e-002 
-4.857749e-002 
-4.839114e-002 
-4.850894e-002 
-4.858172e-002 
-4.836494e-002 
-4.828374e-002 
-4.843186e-002 
-4.836972e-002 
-4.814681e-002 
-4.817232e-002 
-4.823485e-002 
-4.805062e-002 
-4.795733e-002 
-4.805680e-002 
-4.795915e-002 
-4.775898e-002 
-4.780151e-002 
-4.783809e-002 
-4.763798e-002 
-4.754252e-002 
-4.761558e-002 
-4.750774e-002 
-4.732410e-002 
-4.733526e-002 
-4.731968e-002 
-4.711064e-002 
-4.699810e-002 
-4.701756e-002 
-4.688588e-002 
-4.665924e-002 
-4.661656e-002 
-4.657015e-002 
-4.634074e-002 
-4.615892e-002 
-4.613902e-002 
-4.599781e-002 
-4.572045e-002 
-4.560663e-002 
-4.559013e-002 
-4.537808e-002 
-4.512299e-002 
-4.511151e-002 
-4.511027e-002 
-4.486774e-002 
-4.471994e-002 
-4.484338e-002 
-4.480646e-002 
-4.456025e-002 
-4.458643e-002 
-4.475693e-002 
-4.461049e-002 
-4.445103e-002 
-4.462241e-002 
-4.467034e-002 
-4.443620e-002 
-4.442924e-002 
-4.458277e-002 
-4.443574e-002 
-4.426499e-002 
-4.438674e-002 
-4.437086e-002 
-4.410278e-002 
-4.407195e-002 
-4.416416e-002 
-4.393425e-002 
-4.370397e-002 
-4.380799e-002 
-4.380073e-002 
-4.350323e-002 
-4.341476e-002 
-4.356131e-002 
-4.346106e-002 
-4.321691e-002 
-4.321150e-002 
-4.328075e-002 
-4.313276e-002 
-4.298027e-002 
-4.297801e-002 
-4.292898e-002 
-4.277209e-002 
-4.271548e-002 
-4.268705e-002 
-4.259996e-002 
-4.249281e-002 
-4.240739e-002 
-4.229216e-002 
-4.215851e-002 
-4.205788e-002 
-4.197510e-002 
-4.181514e-002 
-4.164924e-002 
-4.160447e-002 
-4.154957e-002 
-4.133005e-002 
-4.115123e-002 
-4.116035e-002 
-4.108050e-002 
-4.084128e-002 
-4.072114e-002 
-4.071882e-002 
-4.056682e-002 
-4.037208e-002 
-4.032417e-002 
-4.025490e-002 
-4.007691e-002 
-3.997791e-002 
-3.995174e-002 
-3.980819e-002 
-3.966566e-002 
-3.965411e-002 
-3.958744e-002 
-3.940628e-002 
-3.934622e-002 
-3.936581e-002 
-3.923769e-002 
-3.908732e-002 
-3.910861e-002 
-3.910134e-002 
-3.894672e-002 
-3.887137e-002 
-3.891816e-002 
-3.885867e-002 
-3.872521e-002 
-3.871476e-002 
-3.872971e-002 
-3.862742e-002 
-3.854893e-002 
-3.856779e-002 
-3.853001e-002 
-3.844004e-002 
-3.842399e-002 
-3.841709e-002 
-3.834761e-002 
-3.831125e-002 
-3.831100e-002 
-3.826288e-002 
-3.821828e-002 
-3.822528e-002 
-3.820203e-002 
-3.815557e-002 
-3.816534e-002 
-3.817847e-002 
-3.814154e-002 
-3.813629e-002 
-3.817494e-002 
-3.817767e-002 
-3.817144e-002 
-3.821856e-002 
-3.826507e-002 
-3.827923e-002 
-3.832043e-002 
-3.839626e-002 
-3.844863e-002 
-3.849506e-002 
-3.858169e-002 
-3.867109e-002 
-3.873503e-002 
-3.881360e-002 
-3.892120e-002 
-3.900437e-002 
-3.906747e-002 
-3.915991e-002 
-3.923819e-002 
-3.926651e-002 
-3.930804e-002 
-3.940141e-002 
-3.946843e-002 
-3.948544e-002 
-3.953218e-002 
-3.958218e-002 
-3.950489e-002 
-3.937786e-002 
-3.939093e-002 
-3.946710e-002 
-3.952773e-002 
-3.979741e-002 
-4.032994e-002 
-4.078492e-002 
-4.106957e-002 
-4.134013e-002 
-4.148044e-002 
-4.141909e-002 
-4.137887e-002 
-4.143305e-002 
-4.143232e-002 
-4.134950e-002 
-4.138843e-002 
-4.146586e-002 
-4.143334e-002 
-4.143240e-002 
-4.157476e-002 
-4.165222e-002 
-4.162789e-002 
-4.168182e-002 
-4.178777e-002 
-4.174856e-002 
-4.172447e-002 
-4.181325e-002 
-4.182067e-002 
-4.173417e-002 
-4.177684e-002 
-4.183216e-002 
-4.175707e-002 
-4.169225e-002 
-4.175300e-002 
-4.176680e-002 
-4.164007e-002 
-4.161579e-002 
-4.164449e-002 
-4.158664e-002 
-4.148394e-002 
-4.148537e-002 
-4.146313e-002 
-4.137894e-002 
-4.130029e-002 
-4.127697e-002 
-4.121197e-002 
-4.113565e-002 
-4.109794e-002 
-4.104422e-002 
-4.094692e-002 
-4.088494e-002 
-4.084758e-002 
-4.077748e-002 
-4.069454e-002 
-4.064652e-002 
-4.059483e-002 
-4.051093e-002 
-4.043678e-002 
-4.039825e-002 
-4.034567e-002 
-4.026901e-002 
-4.020465e-002 
-4.015609e-002 
-4.009269e-002 
-4.002810e-002 
-3.997404e-002 
-3.991919e-002 
-3.986352e-002 
-3.980145e-002 
-3.974306e-002 
-3.969254e-002 
-3.964022e-002 
-3.958044e-002 
-3.952338e-002 
-3.948478e-002 
-3.942961e-002 
-3.935318e-002 
-3.935318e-002 
1.110223e-016 
-4.711267e-002 
-4.637351e-002 
-4.560810e-002 
-4.488360e-002 
-4.634339e-002 
-4.654535e-002 
-4.539165e-002 
-4.554847e-002 
-4.667056e-002 
-4.599016e-002 
-4.531830e-002 
-4.593626e-002 
-4.677082e-002 
-4.581512e-002 
-4.514926e-002 
-4.663870e-002 
-4.661541e-002 
-4.525729e-002 
-4.604112e-002 
-4.685062e-002 
-4.594554e-002 
-4.577146e-002 
-4.655689e-002 
-4.651303e-002 
-4.610739e-002 
-4.621177e-002 
-4.652823e-002 
-4.662883e-002 
-4.637317e-002 
-4.620907e-002 
-4.672335e-002 
-4.689531e-002 
-4.610811e-002 
-4.632643e-002 
-4.726099e-002 
-4.650060e-002 
-4.582423e-002 
-4.705370e-002 
-4.713397e-002 
-4.575656e-002 
-4.641726e-002 
-4.747964e-002 
-4.623467e-002 
-4.576528e-002 
-4.735834e-002 
-4.687213e-002 
-4.556602e-002 
-4.676243e-002 
-4.737451e-002 
-4.579283e-002 
-4.633634e-002 
-4.727637e-002 
-4.616652e-002 
-4.641214e-002 
-4.697416e-002 
-4.631093e-002 
-4.651718e-002 
-4.685839e-002 
-4.628623e-002 
-4.651639e-002 
-4.682865e-002 
-4.631295e-002 
-4.624081e-002 
-4.681271e-002 
-4.649564e-002 
-4.584394e-002 
-4.667797e-002 
-4.659527e-002 
-4.574086e-002 
-4.632436e-002 
-4.668080e-002 
-4.583639e-002 
-4.597856e-002 
-4.654900e-002 
-4.605977e-002 
-4.583737e-002 
-4.612701e-002 
-4.616709e-002 
-4.585476e-002 
-4.572886e-002 
-4.595047e-002 
-4.592184e-002 
-4.546410e-002 
-4.561026e-002 
-4.580773e-002 
-4.541818e-002 
-4.525786e-002 
-4.544831e-002 
-4.528410e-002 
-4.499575e-002 
-4.500185e-002 
-4.513914e-002 
-4.505561e-002 
-4.466968e-002 
-4.465641e-002 
-4.473765e-002 
-4.438807e-002 
-4.432959e-002 
-4.480383e-002 
-4.438694e-002 
-4.343308e-002 
-4.404036e-002 
-4.483816e-002 
-4.355074e-002 
-4.283126e-002 
-4.417112e-002 
-4.440240e-002 
-4.269649e-002 
-4.274245e-002 
-4.422476e-002 
-4.359218e-002 
-4.215209e-002 
-4.302280e-002 
-4.398490e-002 
-4.257093e-002 
-4.208226e-002 
-4.331282e-002 
-4.332656e-002 
-4.166921e-002 
-4.211912e-002 
-4.423654e-002 
-4.178833e-002 
-4.139662e-002 
-4.384077e-002 
-4.240310e-002 
-4.109808e-002 
-4.289466e-002 
-4.355215e-002 
-4.131729e-002 
-4.176053e-002 
-4.346758e-002 
-4.232015e-002 
-4.103436e-002 
-4.269575e-002 
-4.318718e-002 
-4.149373e-002 
-4.195284e-002 
-4.346968e-002 
-4.222307e-002 
-4.116217e-002 
-4.297665e-002 
-4.313185e-002 
-4.145470e-002 
-4.234899e-002 
-4.384149e-002 
-4.238185e-002 
-4.178433e-002 
-4.366861e-002 
-4.356326e-002 
-4.216540e-002 
-4.347101e-002 
-4.452129e-002 
-4.288898e-002 
-4.285514e-002 
-4.467028e-002 
-4.426813e-002 
-4.336403e-002 
-4.429132e-002 
-4.477475e-002 
-4.403465e-002 
-4.427184e-002 
-4.505016e-002 
-4.475481e-002 
-4.435237e-002 
-4.503146e-002 
-4.558440e-002 
-4.501420e-002 
-4.478076e-002 
-4.560514e-002 
-4.580598e-002 
-4.521062e-002 
-4.549164e-002 
-4.619530e-002 
-4.586201e-002 
-4.548528e-002 
-4.617515e-002 
-4.646639e-002 
-4.585543e-002 
-4.595017e-002 
-4.666620e-002 
-4.643501e-002 
-4.592704e-002 
-4.636658e-002 
-4.681586e-002 
-4.634746e-002 
-4.609960e-002 
-4.665803e-002 
-4.680979e-002 
-4.625800e-002 
-4.630047e-002 
-4.687810e-002 
-4.666152e-002 
-4.615244e-002 
-4.660648e-002 
-4.697187e-002 
-4.633321e-002 
-4.624631e-002 
-4.699649e-002 
-4.676529e-002 
-4.611704e-002 
-4.667716e-002 
-4.717195e-002 
-4.641068e-002 
-4.632710e-002 
-4.716373e-002 
-4.698763e-002 
-4.627475e-002 
-4.674994e-002 
-4.727603e-002 
-4.658605e-002 
-4.626356e-002 
-4.697254e-002 
-4.690927e-002 
-4.608673e-002 
-4.629019e-002 
-4.690875e-002 
-4.643858e-002 
-4.597797e-002 
-4.659954e-002 
-4.704438e-002 
-4.664448e-002 
-4.672638e-002 
-4.745406e-002 
-4.752552e-002 
-4.712132e-002 
-4.741046e-002 
-4.782266e-002 
-4.737794e-002 
-4.698433e-002 
-4.739217e-002 
-4.747708e-002 
-4.675640e-002 
-4.652690e-002 
-4.678992e-002 
-4.626140e-002 
-4.542583e-002 
-4.529785e-002 
-4.515535e-002 
-4.439219e-002 
-4.400671e-002 
-4.429361e-002 
-4.420168e-002 
-4.380179e-002 
-4.418696e-002 
-4.481308e-002 
-4.473234e-002 
-4.484834e-002 
-4.576053e-002 
-4.622022e-002 
-4.609868e-002 
-4.667839e-002 
-4.750956e-002 
-4.744437e-002 
-4.743242e-002 
-4.819805e-002 
-4.850670e-002 
-4.812199e-002 
-4.835835e-002 
-4.889221e-002 
-4.860248e-002 
-4.826850e-002 
-4.869395e-002 
-4.882129e-002 
-4.829356e-002 
-4.830327e-002 
-4.874221e-002 
-4.849003e-002 
-4.806163e-002 
-4.837418e-002 
-4.859864e-002 
-4.810277e-002 
-4.791254e-002 
-4.833997e-002 
-4.827860e-002 
-4.776275e-002 
-4.785234e-002 
-4.819712e-002 
-4.787697e-002 
-4.752070e-002 
-4.780760e-002 
-4.791193e-002 
-4.745849e-002 
-4.736441e-002 
-4.768792e-002 
-4.750770e-002 
-4.706999e-002 
-4.722495e-002 
-4.741373e-002 
-4.699907e-002 
-4.671831e-002 
-4.699391e-002 
-4.690368e-002 
-4.643436e-002 
-4.638918e-002 
-4.658647e-002 
-4.622797e-002 
-4.587351e-002 
-4.601806e-002 
-4.595060e-002 
-4.549026e-002 
-4.540465e-002 
-4.552609e-002 
-4.521941e-002 
-4.493286e-002 
-4.506140e-002 
-4.502506e-002 
-4.470770e-002 
-4.469273e-002 
-4.485319e-002 
-4.468653e-002 
-4.449898e-002 
-4.465513e-002 
-4.472217e-002 
-4.450044e-002 
-4.448254e-002 
-4.467314e-002 
-4.457410e-002 
-4.435904e-002 
-4.447353e-002 
-4.456209e-002 
-4.430891e-002 
-4.421142e-002 
-4.439833e-002 
-4.427962e-002 
-4.396462e-002 
-4.401750e-002 
-4.411292e-002 
-4.378951e-002 
-4.358334e-002 
-4.377828e-002 
-4.375443e-002 
-4.339095e-002 
-4.334420e-002 
-4.355342e-002 
-4.339664e-002 
-4.308225e-002 
-4.318944e-002 
-4.328434e-002 
-4.301397e-002 
-4.283483e-002 
-4.298613e-002 
-4.287347e-002 
-4.264405e-002 
-4.262242e-002 
-4.268775e-002 
-4.250484e-002 
-4.234707e-002 
-4.231399e-002 
-4.223374e-002 
-4.200120e-002 
-4.192270e-002 
-4.191590e-002 
-4.172265e-002 
-4.148118e-002 
-4.147534e-002 
-4.148222e-002 
-4.122210e-002 
-4.101684e-002 
-4.103397e-002 
-4.099170e-002 
-4.072789e-002 
-4.058043e-002 
-4.061485e-002 
-4.049352e-002 
-4.023689e-002 
-4.018860e-002 
-4.021269e-002 
-3.999700e-002 
-3.981955e-002 
-3.986678e-002 
-3.980683e-002 
-3.954027e-002 
-3.951016e-002 
-3.958120e-002 
-3.937753e-002 
-3.918798e-002 
-3.929718e-002 
-3.926492e-002 
-3.900198e-002 
-3.898830e-002 
-3.910130e-002 
-3.892963e-002 
-3.876975e-002 
-3.886938e-002 
-3.884978e-002 
-3.866167e-002 
-3.864815e-002 
-3.870005e-002 
-3.858170e-002 
-3.849534e-002 
-3.853266e-002 
-3.848886e-002 
-3.839000e-002 
-3.839106e-002 
-3.838744e-002 
-3.830623e-002 
-3.827593e-002 
-3.829091e-002 
-3.823725e-002 
-3.818599e-002 
-3.820302e-002 
-3.819787e-002 
-3.814794e-002 
-3.814732e-002 
-3.817515e-002 
-3.815990e-002 
-3.814075e-002 
-3.817240e-002 
-3.821290e-002 
-3.822226e-002 
-3.823662e-002 
-3.829535e-002 
-3.836021e-002 
-3.838667e-002 
-3.842383e-002 
-3.852695e-002 
-3.861502e-002 
-3.863825e-002 
-3.872593e-002 
-3.887009e-002 
-3.892272e-002 
-3.895833e-002 
-3.909922e-002 
-3.919585e-002 
-3.918356e-002 
-3.925498e-002 
-3.937617e-002 
-3.939217e-002 
-3.941834e-002 
-3.953978e-002 
-3.957815e-002 
-3.950594e-002 
-3.948075e-002 
-3.945166e-002 
-3.930324e-002 
-3.927434e-002 
-3.950324e-002 
-3.980869e-002 
-4.014147e-002 
-4.062481e-002 
-4.106481e-002 
-4.128137e-002 
-4.137030e-002 
-4.144707e-002 
-4.143935e-002 
-4.135562e-002 
-4.139618e-002 
-4.143512e-002 
-4.135949e-002 
-4.136170e-002 
-4.147796e-002 
-4.148075e-002 
-4.148911e-002 
-4.164380e-002 
-4.171135e-002 
-4.165159e-002 
-4.171384e-002 
-4.180569e-002 
-4.177920e-002 
-4.173028e-002 
-4.179936e-002 
-4.182139e-002 
-4.176537e-002 
-4.173151e-002 
-4.180870e-002 
-4.175245e-002 
-4.167978e-002 
-4.173466e-002 
-4.170555e-002 
-4.160225e-002 
-4.159172e-002 
-4.160718e-002 
-4.150055e-002 
-4.145831e-002 
-4.146665e-002 
-4.139658e-002 
-4.127290e-002 
-4.126928e-002 
-4.123140e-002 
-4.112556e-002 
-4.107256e-002 
-4.105762e-002 
-4.095325e-002 
-4.086463e-002 
-4.084443e-002 
-4.079211e-002 
-4.068698e-002 
-4.064453e-002 
-4.060184e-002 
-4.050797e-002 
-4.043978e-002 
-4.041258e-002 
-4.034450e-002 
-4.027239e-002 
-4.022396e-002 
-4.016137e-002 
-4.008661e-002 
-4.004646e-002 
-3.999240e-002 
-3.991157e-002 
-3.986378e-002 
-3.983045e-002 
-3.975385e-002 
-3.968013e-002 
-3.965076e-002 
-3.960342e-002 
-3.952243e-002 
-3.948020e-002 
-3.944428e-002 
-3.937067e-002 
-3.937067e-002 
1.110223e-016 
-4.495833e-002 
-4.835184e-002 
-4.587744e-002 
-4.414955e-002 
-4.639735e-002 
-4.716360e-002 
-4.543550e-002 
-4.495548e-002 
-4.652340e-002 
-4.664593e-002 
-4.538318e-002 
-4.556962e-002 
-4.660178e-002 
-4.608681e-002 
-4.546886e-002 
-4.620683e-002 
-4.657068e-002 
-4.563987e-002 
-4.581383e-002 
-4.680013e-002 
-4.613498e-002 
-4.559783e-002 
-4.671126e-002 
-4.661018e-002 
-4.567311e-002 
-4.647653e-002 
-4.705850e-002 
-4.592260e-002 
-4.612479e-002 
-4.726693e-002 
-4.644030e-002 
-4.580318e-002 
-4.710818e-002 
-4.701359e-002 
-4.576926e-002 
-4.655329e-002 
-4.744836e-002 
-4.616372e-002 
-4.590041e-002 
-4.730427e-002 
-4.696539e-002 
-4.559358e-002 
-4.661267e-002 
-4.759216e-002 
-4.600909e-002 
-4.563798e-002 
-4.767284e-002 
-4.692400e-002 
-4.510147e-002 
-4.702767e-002 
-4.774241e-002 
-4.532308e-002 
-4.624220e-002 
-4.791631e-002 
-4.597022e-002 
-4.575008e-002 
-4.755673e-002 
-4.672878e-002 
-4.564100e-002 
-4.676075e-002 
-4.720398e-002 
-4.603785e-002 
-4.604585e-002 
-4.697969e-002 
-4.662087e-002 
-4.576542e-002 
-4.637439e-002 
-4.690675e-002 
-4.602018e-002 
-4.573654e-002 
-4.674370e-002 
-4.645022e-002 
-4.553342e-002 
-4.627715e-002 
-4.659483e-002 
-4.570896e-002 
-4.587385e-002 
-4.639311e-002 
-4.583894e-002 
-4.569120e-002 
-4.600427e-002 
-4.576306e-002 
-4.567350e-002 
-4.572593e-002 
-4.542320e-002 
-4.550187e-002 
-4.568140e-002 
-4.511763e-002 
-4.498012e-002 
-4.556333e-002 
-4.522928e-002 
-4.444468e-002 
-4.499420e-002 
-4.537889e-002 
-4.431352e-002 
-4.418975e-002 
-4.533112e-002 
-4.467337e-002 
-4.333549e-002 
-4.430529e-002 
-4.526281e-002 
-4.371866e-002 
-4.301165e-002 
-4.433936e-002 
-4.439556e-002 
-4.312171e-002 
-4.322128e-002 
-4.389505e-002 
-4.344907e-002 
-4.303566e-002 
-4.339046e-002 
-4.314961e-002 
-4.279709e-002 
-4.322945e-002 
-4.318781e-002 
-4.234609e-002 
-4.259409e-002 
-4.327966e-002 
-4.269251e-002 
-4.184589e-002 
-4.275431e-002 
-4.335104e-002 
-4.150851e-002 
-4.212301e-002 
-4.352632e-002 
-4.210873e-002 
-4.145478e-002 
-4.301466e-002 
-4.294611e-002 
-4.141628e-002 
-4.218546e-002 
-4.314570e-002 
-4.192018e-002 
-4.150076e-002 
-4.302562e-002 
-4.278288e-002 
-4.138104e-002 
-4.219034e-002 
-4.332708e-002 
-4.201459e-002 
-4.144253e-002 
-4.301970e-002 
-4.310051e-002 
-4.170978e-002 
-4.241572e-002 
-4.357316e-002 
-4.251581e-002 
-4.211691e-002 
-4.370589e-002 
-4.373749e-002 
-4.249773e-002 
-4.328211e-002 
-4.429317e-002 
-4.333114e-002 
-4.328808e-002 
-4.453881e-002 
-4.428121e-002 
-4.354637e-002 
-4.433033e-002 
-4.485990e-002 
-4.431290e-002 
-4.427955e-002 
-4.489095e-002 
-4.497474e-002 
-4.480205e-002 
-4.509609e-002 
-4.530790e-002 
-4.510034e-002 
-4.520287e-002 
-4.562367e-002 
-4.567473e-002 
-4.546898e-002 
-4.568890e-002 
-4.610889e-002 
-4.595154e-002 
-4.566099e-002 
-4.612876e-002 