# vtk DataFile Version 2.0
2D-ADE data file 
ASCII
DATASET RECTILINEAR_GRID
DIMENSIONS 512 128 1
X_COORDINATES 512 int
0 1 2 3 4 5 6 7 8 9 10 11 12 13 14 15 16 17 18 19 20 21 22 23 24 25 26 27 28 29 30 31 32 33 34 35 36 37 38 39 40 41 42 43 44 45 46 47 48 49 50 51 52 53 54 55 56 57 58 59 60 61 62 63 64 65 66 67 68 69 70 71 72 73 74 75 76 77 78 79 80 81 82 83 84 85 86 87 88 89 90 91 92 93 94 95 96 97 98 99 100 101 102 103 104 105 106 107 108 109 110 111 112 113 114 115 116 117 118 119 120 121 122 123 124 125 126 127 128 129 130 131 132 133 134 135 136 137 138 139 140 141 142 143 144 145 146 147 148 149 150 151 152 153 154 155 156 157 158 159 160 161 162 163 164 165 166 167 168 169 170 171 172 173 174 175 176 177 178 179 180 181 182 183 184 185 186 187 188 189 190 191 192 193 194 195 196 197 198 199 200 201 202 203 204 205 206 207 208 209 210 211 212 213 214 215 216 217 218 219 220 221 222 223 224 225 226 227 228 229 230 231 232 233 234 235 236 237 238 239 240 241 242 243 244 245 246 247 248 249 250 251 252 253 254 255 256 257 258 259 260 261 262 263 264 265 266 267 268 269 270 271 272 273 274 275 276 277 278 279 280 281 282 283 284 285 286 287 288 289 290 291 292 293 294 295 296 297 298 299 300 301 302 303 304 305 306 307 308 309 310 311 312 313 314 315 316 317 318 319 320 321 322 323 324 325 326 327 328 329 330 331 332 333 334 335 336 337 338 339 340 341 342 343 344 345 346 347 348 349 350 351 352 353 354 355 356 357 358 359 360 361 362 363 364 365 366 367 368 369 370 371 372 373 374 375 376 377 378 379 380 381 382 383 384 385 386 387 388 389 390 391 392 393 394 395 396 397 398 399 400 401 402 403 404 405 406 407 408 409 410 411 412 413 414 415 416 417 418 419 420 421 422 423 424 425 426 427 428 429 430 431 432 433 434 435 436 437 438 439 440 441 442 443 444 445 446 447 448 449 450 451 452 453 454 455 456 457 458 459 460 461 462 463 464 465 466 467 468 469 470 471 472 473 474 475 476 477 478 479 480 481 482 483 484 485 486 487 488 489 490 491 492 493 494 495 496 497 498 499 500 501 502 503 504 505 506 507 508 509 510 511 
Y_COORDINATES 128 int
0 1 2 3 4 5 6 7 8 9 10 11 12 13 14 15 16 17 18 19 20 21 22 23 24 25 26 27 28 29 30 31 32 33 34 35 36 37 38 39 40 41 42 43 44 45 46 47 48 49 50 51 52 53 54 55 56 57 58 59 60 61 62 63 64 65 66 67 68 69 70 71 72 73 74 75 76 77 78 79 80 81 82 83 84 85 86 87 88 89 90 91 92 93 94 95 96 97 98 99 100 101 102 103 104 105 106 107 108 109 110 111 112 113 114 115 116 117 118 119 120 121 122 123 124 125 126 127 
Z_COORDINATES 1 int
0
POINT_DATA 65536 
SCALARS density double 1
LOOKUP_TABLE default
-2.023817e-002 
-3.025750e-002 
-2.681483e-002 
-2.636648e-002 
-2.652260e-002 
-2.643544e-002 
-2.654317e-002 
-2.650327e-002 
-2.647581e-002 
-2.643752e-002 
-2.654243e-002 
-2.647327e-002 
-2.651221e-002 
-2.640649e-002 
-2.648768e-002 
-2.657566e-002 
-2.639035e-002 
-2.644427e-002 
-2.655578e-002 
-2.643750e-002 
-2.643186e-002 
-2.650330e-002 
-2.647465e-002 
-2.645129e-002 
-2.646583e-002 
-2.643536e-002 
-2.647624e-002 
-2.648904e-002 
-2.640864e-002 
-2.643368e-002 
-2.655194e-002 
-2.644196e-002 
-2.635885e-002 
-2.654760e-002 
-2.653769e-002 
-2.631509e-002 
-2.646165e-002 
-2.661326e-002 
-2.636174e-002 
-2.633875e-002 
-2.660458e-002 
-2.648351e-002 
-2.628335e-002 
-2.650442e-002 
-2.660965e-002 
-2.630388e-002 
-2.637760e-002 
-2.662406e-002 
-2.643967e-002 
-2.626753e-002 
-2.658571e-002 
-2.649166e-002 
-2.629512e-002 
-2.650894e-002 
-2.647721e-002 
-2.636624e-002 
-2.645405e-002 
-2.645368e-002 
-2.641330e-002 
-2.647934e-002 
-2.640961e-002 
-2.640879e-002 
-2.652613e-002 
-2.642269e-002 
-2.636848e-002 
-2.650940e-002 
-2.652429e-002 
-2.629727e-002 
-2.647080e-002 
-2.656758e-002 
-2.634012e-002 
-2.638785e-002 
-2.654568e-002 
-2.640798e-002 
-2.634766e-002 
-2.647243e-002 
-2.643196e-002 
-2.638028e-002 
-2.636232e-002 
-2.643063e-002 
-2.640824e-002 
-2.634376e-002 
-2.636173e-002 
-2.641508e-002 
-2.636887e-002 
-2.632129e-002 
-2.636279e-002 
-2.639214e-002 
-2.634174e-002 
-2.626838e-002 
-2.636032e-002 
-2.638859e-002 
-2.624931e-002 
-2.627230e-002 
-2.638426e-002 
-2.626944e-002 
-2.615225e-002 
-2.634372e-002 
-2.633578e-002 
-2.611571e-002 
-2.620658e-002 
-2.635528e-002 
-2.616315e-002 
-2.605950e-002 
-2.629176e-002 
-2.629438e-002 
-2.602412e-002 
-2.604085e-002 
-2.627450e-002 
-2.615066e-002 
-2.597391e-002 
-2.611454e-002 
-2.621768e-002 
-2.601256e-002 
-2.596022e-002 
-2.613865e-002 
-2.603311e-002 
-2.595417e-002 
-2.601117e-002 
-2.601361e-002 
-2.601383e-002 
-2.581448e-002 
-2.602130e-002 
-2.600097e-002 
-2.571601e-002 
-2.602269e-002 
-2.590483e-002 
-2.576657e-002 
-2.583301e-002 
-2.594041e-002 
-2.576325e-002 
-2.571789e-002 
-2.587758e-002 
-2.579341e-002 
-2.567480e-002 
-2.576608e-002 
-2.583327e-002 
-2.566392e-002 
-2.566314e-002 
-2.579305e-002 
-2.573222e-002 
-2.555309e-002 
-2.571496e-002 
-2.576935e-002 
-2.558432e-002 
-2.558388e-002 
-2.576723e-002 
-2.566072e-002 
-2.553770e-002 
-2.564837e-002 
-2.571042e-002 
-2.557078e-002 
-2.551754e-002 
-2.571133e-002 
-2.565569e-002 
-2.549299e-002 
-2.566876e-002 
-2.569417e-002 
-2.556150e-002 
-2.559294e-002 
-2.566817e-002 
-2.564012e-002 
-2.558894e-002 
-2.563506e-002 
-2.569616e-002 
-2.565619e-002 
-2.558889e-002 
-2.567719e-002 
-2.571156e-002 
-2.559607e-002 
-2.562581e-002 
-2.574787e-002 
-2.569570e-002 
-2.559762e-002 
-2.568218e-002 
-2.576015e-002 
-2.565410e-002 
-2.560612e-002 
-2.574479e-002 
-2.575984e-002 
-2.560538e-002 
-2.564467e-002 
-2.580979e-002 
-2.572186e-002 
-2.558396e-002 
-2.574633e-002 
-2.583745e-002 
-2.564371e-002 
-2.561593e-002 
-2.583138e-002 
-2.576997e-002 
-2.556115e-002 
-2.570437e-002 
-2.584493e-002 
-2.563144e-002 
-2.556938e-002 
-2.579127e-002 
-2.575273e-002 
-2.554272e-002 
-2.564636e-002 
-2.579718e-002 
-2.562676e-002 
-2.553230e-002 
-2.571495e-002 
-2.573552e-002 
-2.556136e-002 
-2.562498e-002 
-2.578040e-002 
-2.569851e-002 
-2.562996e-002 
-2.578535e-002 
-2.586241e-002 
-2.575567e-002 
-2.579805e-002 
-2.595633e-002 
-2.592230e-002 
-2.585203e-002 
-2.597237e-002 
-2.605880e-002 
-2.596125e-002 
-2.596974e-002 
-2.610540e-002 
-2.608753e-002 
-2.599164e-002 
-2.606467e-002 
-2.617876e-002 
-2.609772e-002 
-2.602924e-002 
-2.614325e-002 
-2.616488e-002 
-2.604980e-002 
-2.603254e-002 
-2.614501e-002 
-2.612822e-002 
-2.600799e-002 
-2.606627e-002 
-2.616582e-002 
-2.608208e-002 
-2.604259e-002 
-2.615988e-002 
-2.617599e-002 
-2.607449e-002 
-2.610989e-002 
-2.620045e-002 
-2.614525e-002 
-2.608527e-002 
-2.616545e-002 
-2.619385e-002 
-2.610203e-002 
-2.610663e-002 
-2.618865e-002 
-2.615756e-002 
-2.609477e-002 
-2.616234e-002 
-2.621849e-002 
-2.615642e-002 
-2.613579e-002 
-2.622113e-002 
-2.621487e-002 
-2.613596e-002 
-2.617988e-002 
-2.622580e-002 
-2.616588e-002 
-2.613488e-002 
-2.619727e-002 
-2.619092e-002 
-2.611901e-002 
-2.615022e-002 
-2.619521e-002 
-2.614070e-002 
-2.612049e-002 
-2.619341e-002 
-2.619606e-002 
-2.613665e-002 
-2.618953e-002 
-2.626432e-002 
-2.621370e-002 
-2.617286e-002 
-2.624493e-002 
-2.626693e-002 
-2.618598e-002 
-2.620058e-002 
-2.627624e-002 
-2.622278e-002 
-2.616408e-002 
-2.623749e-002 
-2.627088e-002 
-2.618168e-002 
-2.616819e-002 
-2.626846e-002 
-2.626055e-002 
-2.617957e-002 
-2.623646e-002 
-2.630595e-002 
-2.623189e-002 
-2.619681e-002 
-2.627881e-002 
-2.626512e-002 
-2.618440e-002 
-2.620967e-002 
-2.625642e-002 
-2.618731e-002 
-2.613631e-002 
-2.621027e-002 
-2.620353e-002 
-2.611472e-002 
-2.614953e-002 
-2.623109e-002 
-2.617131e-002 
-2.611968e-002 
-2.620888e-002 
-2.624659e-002 
-2.614156e-002 
-2.615552e-002 
-2.627065e-002 
-2.621635e-002 
-2.611941e-002 
-2.620762e-002 
-2.626075e-002 
-2.616475e-002 
-2.613567e-002 
-2.621990e-002 
-2.621488e-002 
-2.612220e-002 
-2.614190e-002 
-2.622759e-002 
-2.616692e-002 
-2.609480e-002 
-2.618830e-002 
-2.622720e-002 
-2.615217e-002 
-2.614185e-002 
-2.621349e-002 
-2.620519e-002 
-2.613977e-002 
-2.615223e-002 
-2.621002e-002 
-2.616565e-002 
-2.612763e-002 
-2.616284e-002 
-2.615235e-002 
-2.612290e-002 
-2.613263e-002 
-2.613750e-002 
-2.611916e-002 
-2.611490e-002 
-2.612565e-002 
-2.612351e-002 
-2.610674e-002 
-2.610767e-002 
-2.612252e-002 
-2.610689e-002 
-2.609209e-002 
-2.609947e-002 
-2.610592e-002 
-2.610562e-002 
-2.611475e-002 
-2.610360e-002 
-2.608939e-002 
-2.612445e-002 
-2.613075e-002 
-2.610194e-002 
-2.611802e-002 
-2.613521e-002 
-2.611700e-002 
-2.609820e-002 
-2.612018e-002 
-2.613318e-002 
-2.609530e-002 
-2.608437e-002 
-2.611032e-002 
-2.609982e-002 
-2.605733e-002 
-2.604771e-002 
-2.608570e-002 
-2.606258e-002 
-2.602024e-002 
-2.606266e-002 
-2.607009e-002 
-2.600986e-002 
-2.602191e-002 
-2.606836e-002 
-2.604404e-002 
-2.599583e-002 
-2.603760e-002 
-2.607540e-002 
-2.600925e-002 
-2.599284e-002 
-2.605247e-002 
-2.604328e-002 
-2.597342e-002 
-2.598981e-002 
-2.604940e-002 
-2.600431e-002 
-2.596044e-002 
-2.601486e-002 
-2.603159e-002 
-2.596380e-002 
-2.595582e-002 
-2.602592e-002 
-2.599635e-002 
-2.593030e-002 
-2.598319e-002 
-2.602216e-002 
-2.596735e-002 
-2.595922e-002 
-2.602376e-002 
-2.600843e-002 
-2.596178e-002 
-2.598777e-002 
-2.602851e-002 
-2.599279e-002 
-2.595845e-002 
-2.600839e-002 
-2.600518e-002 
-2.594134e-002 
-2.596186e-002 
-2.600977e-002 
-2.595750e-002 
-2.590910e-002 
-2.595918e-002 
-2.596117e-002 
-2.591425e-002 
-2.593654e-002 
-2.597465e-002 
-2.595299e-002 
-2.592646e-002 
-2.595028e-002 
-2.596929e-002 
-2.595284e-002 
-2.593491e-002 
-2.597590e-002 
-2.597250e-002 
-2.593578e-002 
-2.595889e-002 
-2.597668e-002 
-2.593726e-002 
-2.594070e-002 
-2.597355e-002 
-2.596486e-002 
-2.593726e-002 
-2.596284e-002 
-2.598141e-002 
-2.595430e-002 
-2.594475e-002 
-2.598482e-002 
-2.597917e-002 
-2.593952e-002 
-2.596045e-002 
-2.600167e-002 
-2.596813e-002 
-2.593906e-002 
-2.598779e-002 
-2.597756e-002 
-2.593953e-002 
-2.594559e-002 
-2.597574e-002 
-2.595826e-002 
-2.592233e-002 
-2.594400e-002 
-2.597227e-002 
-2.593579e-002 
-2.593066e-002 
-2.596210e-002 
-2.594777e-002 
-2.590828e-002 
-2.593526e-002 
-2.595720e-002 
-2.591688e-002 
-2.589911e-002 
-2.591970e-002 
-2.592331e-002 
-2.589162e-002 
-2.589580e-002 
-2.591294e-002 
-2.587581e-002 
-2.585605e-002 
-2.588902e-002 
-2.586559e-002 
-2.583092e-002 
-2.584277e-002 
-2.585250e-002 
-2.581380e-002 
-2.581259e-002 
-2.584532e-002 
-2.584387e-002 
-2.580026e-002 
-2.581389e-002 
-2.585332e-002 
-2.581685e-002 
-2.577900e-002 
-2.582055e-002 
-2.584367e-002 
-2.580408e-002 
-2.579034e-002 
-2.583262e-002 
-2.583320e-002 
-2.579874e-002 
-2.579904e-002 
-2.584306e-002 
-2.582817e-002 
-2.578577e-002 
-2.580648e-002 
-2.583798e-002 
-2.581167e-002 
-2.578213e-002 
-2.581910e-002 
-2.583042e-002 
-2.579877e-002 
-2.579249e-002 
-2.583096e-002 
-2.010224e-002 
1.110223e-016 
-4.874990e-002 
-4.258007e-002 
-4.549406e-002 
-4.899511e-002 
-4.674399e-002 
-4.487605e-002 
-4.679609e-002 
-4.778626e-002 
-4.571895e-002 
-4.562763e-002 
-4.757546e-002 
-4.685568e-002 
-4.529606e-002 
-4.648536e-002 
-4.738339e-002 
-4.611994e-002 
-4.565275e-002 
-4.706673e-002 
-4.678020e-002 
-4.550415e-002 
-4.646452e-002 
-4.720260e-002 
-4.590222e-002 
-4.584246e-002 
-4.696255e-002 
-4.639320e-002 
-4.570839e-002 
-4.664832e-002 
-4.673482e-002 
-4.578640e-002 
-4.626122e-002 
-4.694040e-002 
-4.611330e-002 
-4.598095e-002 
-4.681167e-002 
-4.637988e-002 
-4.576805e-002 
-4.661035e-002 
-4.674919e-002 
-4.569791e-002 
-4.602929e-002 
-4.705510e-002 
-4.627847e-002 
-4.548328e-002 
-4.669486e-002 
-4.688227e-002 
-4.553289e-002 
-4.608310e-002 
-4.721204e-002 
-4.576177e-002 
-4.551611e-002 
-4.725415e-002 
-4.623683e-002 
-4.517517e-002 
-4.667245e-002 
-4.685763e-002 
-4.542552e-002 
-4.593915e-002 
-4.699370e-002 
-4.618258e-002 
-4.552178e-002 
-4.646439e-002 
-4.684008e-002 
-4.579179e-002 
-4.592117e-002 
-4.683535e-002 
-4.626412e-002 
-4.563678e-002 
-4.657660e-002 
-4.667591e-002 
-4.558205e-002 
-4.608546e-002 
-4.676397e-002 
-4.594085e-002 
-4.564660e-002 
-4.636376e-002 
-4.619372e-002 
-4.568442e-002 
-4.588231e-002 
-4.612480e-002 
-4.581797e-002 
-4.570136e-002 
-4.591947e-002 
-4.581927e-002 
-4.566720e-002 
-4.574863e-002 
-4.576761e-002 
-4.557839e-002 
-4.553493e-002 
-4.547900e-002 
-4.553473e-002 
-4.564194e-002 
-4.535903e-002 
-4.523058e-002 
-4.544588e-002 
-4.512835e-002 
-4.461870e-002 
-4.529644e-002 
-4.582029e-002 
-4.470039e-002 
-4.404030e-002 
-4.487902e-002 
-4.535590e-002 
-4.487054e-002 
-4.448011e-002 
-4.423240e-002 
-4.422813e-002 
-4.456718e-002 
-4.442220e-002 
-4.382591e-002 
-4.415098e-002 
-4.480225e-002 
-4.398782e-002 
-4.305787e-002 
-4.396133e-002 
-4.462200e-002 
-4.314402e-002 
-4.288392e-002 
-4.431791e-002 
-4.385040e-002 
-4.231457e-002 
-4.278880e-002 
-4.439237e-002 
-4.289235e-002 
-4.167196e-002 
-4.361911e-002 
-4.351784e-002 
-4.157952e-002 
-4.225112e-002 
-4.366986e-002 
-4.209683e-002 
-4.123817e-002 
-4.295289e-002 
-4.288718e-002 
-4.101066e-002 
-4.172877e-002 
-4.317128e-002 
-4.178343e-002 
-4.065996e-002 
-4.222511e-002 
-4.256612e-002 
-4.086498e-002 
-4.107685e-002 
-4.243122e-002 
-4.159397e-002 
-4.066697e-002 
-4.173726e-002 
-4.205780e-002 
-4.085901e-002 
-4.089805e-002 
-4.186110e-002 
-4.133737e-002 
-4.062552e-002 
-4.147806e-002 
-4.175321e-002 
-4.090765e-002 
-4.114514e-002 
-4.178327e-002 
-4.128545e-002 
-4.080452e-002 
-4.144830e-002 
-4.182746e-002 
-4.120470e-002 
-4.109630e-002 
-4.181274e-002 
-4.175550e-002 
-4.109630e-002 
-4.136212e-002 
-4.190070e-002 
-4.149959e-002 
-4.127388e-002 
-4.181185e-002 
-4.194153e-002 
-4.143711e-002 
-4.144844e-002 
-4.191784e-002 
-4.184473e-002 
-4.145184e-002 
-4.165102e-002 
-4.197995e-002 
-4.174232e-002 
-4.157521e-002 
-4.187679e-002 
-4.200112e-002 
-4.173844e-002 
-4.178380e-002 
-4.206045e-002 
-4.191849e-002 
-4.166971e-002 
-4.190427e-002 
-4.201119e-002 
-4.165987e-002 
-4.161209e-002 
-4.196332e-002 
-4.179452e-002 
-4.143462e-002 
-4.167325e-002 
-4.184941e-002 
-4.148428e-002 
-4.139685e-002 
-4.167623e-002 
-4.149324e-002 
-4.127509e-002 
-4.159382e-002 
-4.165600e-002 
-4.134314e-002 
-4.157159e-002 
-4.203988e-002 
-4.189512e-002 
-4.180562e-002 
-4.238886e-002 
-4.270716e-002 
-4.246017e-002 
-4.266841e-002 
-4.324151e-002 
-4.327206e-002 
-4.307717e-002 
-4.349317e-002 
-4.388321e-002 
-4.367550e-002 
-4.361062e-002 
-4.403077e-002 
-4.416326e-002 
-4.388287e-002 
-4.400085e-002 
-4.442863e-002 
-4.433956e-002 
-4.396260e-002 
-4.414952e-002 
-4.442927e-002 
-4.408542e-002 
-4.383742e-002 
-4.422222e-002 
-4.431587e-002 
-4.391925e-002 
-4.397685e-002 
-4.438008e-002 
-4.430037e-002 
-4.409880e-002 
-4.436094e-002 
-4.455858e-002 
-4.427672e-002 
-4.426717e-002 
-4.459181e-002 
-4.454395e-002 
-4.423665e-002 
-4.441907e-002 
-4.465673e-002 
-4.436565e-002 
-4.424950e-002 
-4.457382e-002 
-4.461229e-002 
-4.438156e-002 
-4.454329e-002 
-4.479575e-002 
-4.461585e-002 
-4.453271e-002 
-4.480315e-002 
-4.475684e-002 
-4.452010e-002 
-4.466772e-002 
-4.481818e-002 
-4.454899e-002 
-4.444677e-002 
-4.473377e-002 
-4.467686e-002 
-4.431748e-002 
-4.446248e-002 
-4.476577e-002 
-4.452780e-002 
-4.430947e-002 
-4.472045e-002 
-4.487010e-002 
-4.459804e-002 
-4.471065e-002 
-4.510000e-002 
-4.497226e-002 
-4.470066e-002 
-4.492527e-002 
-4.514061e-002 
-4.489062e-002 
-4.473956e-002 
-4.497316e-002 
-4.505034e-002 
-4.482606e-002 
-4.480487e-002 
-4.495678e-002 
-4.492262e-002 
-4.482538e-002 
-4.495201e-002 
-4.504842e-002 
-4.501958e-002 
-4.504411e-002 
-4.508935e-002 
-4.500954e-002 
-4.497838e-002 
-4.504680e-002 
-4.495012e-002 
-4.478297e-002 
-4.482596e-002 
-4.488632e-002 
-4.465090e-002 
-4.449230e-002 
-4.468082e-002 
-4.472760e-002 
-4.450142e-002 
-4.450460e-002 
-4.476038e-002 
-4.474380e-002 
-4.455516e-002 
-4.471268e-002 
-4.483699e-002 
-4.468229e-002 
-4.470883e-002 
-4.488867e-002 
-4.473681e-002 
-4.455240e-002 
-4.479685e-002 
-4.490626e-002 
-4.454247e-002 
-4.446571e-002 
-4.484344e-002 
-4.474983e-002 
-4.433912e-002 
-4.449390e-002 
-4.481309e-002 
-4.456603e-002 
-4.433754e-002 
-4.469056e-002 
-4.486459e-002 
-4.454033e-002 
-4.451108e-002 
-4.479066e-002 
-4.464069e-002 
-4.443366e-002 
-4.466572e-002 
-4.468617e-002 
-4.436591e-002 
-4.439199e-002 
-4.462178e-002 
-4.439092e-002 
-4.417571e-002 
-4.443538e-002 
-4.451112e-002 
-4.415575e-002 
-4.415815e-002 
-4.450659e-002 
-4.433753e-002 
-4.400120e-002 
-4.427822e-002 
-4.450006e-002 
-4.407272e-002 
-4.389812e-002 
-4.438416e-002 
-4.444015e-002 
-4.396524e-002 
-4.408094e-002 
-4.446705e-002 
-4.427077e-002 
-4.402899e-002 
-4.437066e-002 
-4.448998e-002 
-4.409813e-002 
-4.413457e-002 
-4.454898e-002 
-4.433125e-002 
-4.391975e-002 
-4.424005e-002 
-4.452489e-002 
-4.403136e-002 
-4.376667e-002 
-4.421500e-002 
-4.423926e-002 
-4.369838e-002 
-4.371336e-002 
-4.417426e-002 
-4.399885e-002 
-4.358388e-002 
-4.378849e-002 
-4.403660e-002 
-4.373638e-002 
-4.358655e-002 
-4.389429e-002 
-4.394525e-002 
-4.365263e-002 
-4.367252e-002 
-4.389986e-002 
-4.374615e-002 
-4.354285e-002 
-4.368731e-002 
-4.375686e-002 
-4.352982e-002 
-4.355042e-002 
-4.374529e-002 
-4.362579e-002 
-4.344538e-002 
-4.358212e-002 
-4.365433e-002 
-4.349951e-002 
-4.339252e-002 
-4.351674e-002 
-4.357829e-002 
-4.347746e-002 
-4.347730e-002 
-4.360013e-002 
-4.359493e-002 
-4.352502e-002 
-4.355812e-002 
-4.356655e-002 
-4.355786e-002 
-4.358052e-002 
-4.355328e-002 
-4.348859e-002 
-4.350894e-002 
-4.348135e-002 
-4.342513e-002 
-4.339858e-002 
-4.340769e-002 
-4.332406e-002 
-4.319990e-002 
-4.321236e-002 
-4.331817e-002 
-4.328888e-002 
-4.324311e-002 
-4.329142e-002 
-4.331722e-002 
-4.328434e-002 
-4.330425e-002 
-4.330947e-002 
-4.329242e-002 
-4.333750e-002 
-4.335793e-002 
-4.330398e-002 
-4.327434e-002 
-4.332503e-002 
-4.331896e-002 
-4.325543e-002 
-4.325422e-002 
-4.335685e-002 
-4.336471e-002 
-4.325958e-002 
-4.333130e-002 
-4.345080e-002 
-4.336835e-002 
-4.327403e-002 
-4.336580e-002 
-4.344738e-002 
-4.338254e-002 
-4.332978e-002 
-4.339576e-002 
-4.347432e-002 
-4.337541e-002 
-4.325678e-002 
-4.329606e-002 
-4.339457e-002 
-4.329624e-002 
-4.320433e-002 
-4.323386e-002 
-4.330234e-002 
-4.324867e-002 
-4.318305e-002 
-4.325829e-002 
-4.334075e-002 
-4.314440e-002 
-4.305097e-002 
-4.328641e-002 
-4.333351e-002 
-4.297814e-002 
-4.294596e-002 
-4.322699e-002 
-4.315450e-002 
-4.281163e-002 
-4.290407e-002 
-4.315835e-002 
-4.293075e-002 
-4.262382e-002 
-4.282118e-002 
-4.295683e-002 
-4.261650e-002 
-4.245810e-002 
-4.273462e-002 
-4.271225e-002 
-4.238968e-002 
-4.247935e-002 
-4.276386e-002 
-4.259515e-002 
-4.229964e-002 
-4.255552e-002 
-4.269853e-002 
-4.235832e-002 
-4.222398e-002 
-4.260532e-002 
-4.266495e-002 
-4.228984e-002 
-4.231565e-002 
-4.266865e-002 
-4.259243e-002 
-4.228400e-002 
-4.245199e-002 
-4.268800e-002 
-4.243592e-002 
-4.226901e-002 
-4.250960e-002 
-4.261044e-002 
-4.234875e-002 
-4.233117e-002 
-4.254787e-002 
-4.249059e-002 
-4.234638e-002 
-4.240606e-002 
-4.240606e-002 
1.110223e-016 
-4.782418e-002 
-4.705746e-002 
-4.623982e-002 
-4.562069e-002 
-4.699008e-002 
-4.705556e-002 
-4.603970e-002 
-4.614951e-002 
-4.708682e-002 
-4.655993e-002 
-4.588874e-002 
-4.632568e-002 
-4.726050e-002 
-4.621315e-002 
-4.556420e-002 
-4.706015e-002 
-4.690530e-002 
-4.562250e-002 
-4.630498e-002 
-4.700507e-002 
-4.618544e-002 
-4.595858e-002 
-4.658544e-002 
-4.653764e-002 
-4.613770e-002 
-4.618490e-002 
-4.647535e-002 
-4.650773e-002 
-4.625035e-002 
-4.608958e-002 
-4.653839e-002 
-4.666352e-002 
-4.596823e-002 
-4.615510e-002 
-4.693059e-002 
-4.625547e-002 
-4.572808e-002 
-4.677204e-002 
-4.671223e-002 
-4.559664e-002 
-4.625700e-002 
-4.703269e-002 
-4.597083e-002 
-4.571088e-002 
-4.689205e-002 
-4.645991e-002 
-4.566320e-002 
-4.645386e-002 
-4.668801e-002 
-4.575427e-002 
-4.620132e-002 
-4.650010e-002 
-4.590906e-002 
-4.631094e-002 
-4.622898e-002 
-4.584959e-002 
-4.638985e-002 
-4.629933e-002 
-4.569675e-002 
-4.636541e-002 
-4.652450e-002 
-4.560699e-002 
-4.612734e-002 
-4.688748e-002 
-4.587903e-002 
-4.558455e-002 
-4.699026e-002 
-4.638297e-002 
-4.537692e-002 
-4.656223e-002 
-4.673626e-002 
-4.557851e-002 
-4.594122e-002 
-4.665544e-002 
-4.599572e-002 
-4.565465e-002 
-4.612603e-002 
-4.629109e-002 
-4.567156e-002 
-4.569285e-002 
-4.618252e-002 
-4.596520e-002 
-4.545367e-002 
-4.570266e-002 
-4.606721e-002 
-4.569115e-002 
-4.531051e-002 
-4.560968e-002 
-4.589529e-002 
-4.530651e-002 
-4.509317e-002 
-4.576242e-002 
-4.559598e-002 
-4.480347e-002 
-4.517066e-002 
-4.562314e-002 
-4.479216e-002 
-4.474097e-002 
-4.556970e-002 
-4.490833e-002 
-4.396090e-002 
-4.496378e-002 
-4.562596e-002 
-4.421104e-002 
-4.375101e-002 
-4.515421e-002 
-4.502476e-002 
-4.338143e-002 
-4.387906e-002 
-4.519568e-002 
-4.421454e-002 
-4.308414e-002 
-4.425306e-002 
-4.474473e-002 
-4.322544e-002 
-4.324764e-002 
-4.420592e-002 
-4.382828e-002 
-4.290758e-002 
-4.305667e-002 
-4.423275e-002 
-4.281543e-002 
-4.232881e-002 
-4.394387e-002 
-4.289347e-002 
-4.220606e-002 
-4.295441e-002 
-4.313790e-002 
-4.204685e-002 
-4.225209e-002 
-4.296035e-002 
-4.224475e-002 
-4.175422e-002 
-4.235832e-002 
-4.237989e-002 
-4.164265e-002 
-4.189023e-002 
-4.225029e-002 
-4.162693e-002 
-4.139454e-002 
-4.213425e-002 
-4.172904e-002 
-4.101381e-002 
-4.158322e-002 
-4.197359e-002 
-4.114640e-002 
-4.119071e-002 
-4.180285e-002 
-4.147230e-002 
-4.078194e-002 
-4.126214e-002 
-4.176957e-002 
-4.100150e-002 
-4.094890e-002 
-4.170734e-002 
-4.137103e-002 
-4.102743e-002 
-4.137064e-002 
-4.143481e-002 
-4.114803e-002 
-4.121156e-002 
-4.150363e-002 
-4.150172e-002 
-4.128061e-002 
-4.141407e-002 
-4.170978e-002 
-4.135542e-002 
-4.113076e-002 
-4.164830e-002 
-4.181227e-002 
-4.131827e-002 
-4.151427e-002 
-4.203541e-002 
-4.166713e-002 
-4.122506e-002 
-4.184184e-002 
-4.221437e-002 
-4.144325e-002 
-4.132044e-002 
-4.222264e-002 
-4.210454e-002 
-4.119312e-002 
-4.169711e-002 
-4.256734e-002 
-4.172297e-002 
-4.113607e-002 
-4.226030e-002 
-4.242684e-002 
-4.119151e-002 
-4.150965e-002 
-4.263721e-002 
-4.187900e-002 
-4.104106e-002 
-4.209233e-002 
-4.242832e-002 
-4.112549e-002 
-4.116225e-002 
-4.228148e-002 
-4.175473e-002 
-4.078838e-002 
-4.156009e-002 
-4.212579e-002 
-4.113077e-002 
-4.095255e-002 
-4.205873e-002 
-4.197671e-002 
-4.110021e-002 
-4.164128e-002 
-4.250315e-002 
-4.197156e-002 
-4.168773e-002 
-4.264304e-002 
-4.293391e-002 
-4.233790e-002 
-4.272996e-002 
-4.355073e-002 
-4.328515e-002 
-4.305770e-002 
-4.378314e-002 
-4.414500e-002 
-4.360878e-002 
-4.369041e-002 
-4.440810e-002 
-4.423408e-002 
-4.363172e-002 
-4.403222e-002 
-4.456150e-002 
-4.404718e-002 
-4.364689e-002 
-4.435149e-002 
-4.459568e-002 
-4.395119e-002 
-4.399155e-002 
-4.466289e-002 
-4.446635e-002 
-4.387805e-002 
-4.425873e-002 
-4.470788e-002 
-4.422411e-002 
-4.400105e-002 
-4.450947e-002 
-4.453785e-002 
-4.405457e-002 
-4.431458e-002 
-4.476478e-002 
-4.439839e-002 
-4.417029e-002 
-4.466634e-002 
-4.481995e-002 
-4.429332e-002 
-4.440320e-002 
-4.492615e-002 
-4.468698e-002 
-4.432030e-002 
-4.467982e-002 
-4.489615e-002 
-4.443607e-002 
-4.440002e-002 
-4.484557e-002 
-4.470967e-002 
-4.431671e-002 
-4.459207e-002 
-4.487145e-002 
-4.455369e-002 
-4.449851e-002 
-4.490837e-002 
-4.483401e-002 
-4.449337e-002 
-4.470747e-002 
-4.499017e-002 
-4.462574e-002 
-4.446915e-002 
-4.484954e-002 
-4.483231e-002 
-4.449504e-002 
-4.468775e-002 
-4.498942e-002 
-4.465063e-002 
-4.461169e-002 
-4.509483e-002 
-4.511000e-002 
-4.464260e-002 
-4.483246e-002 
-4.531169e-002 
-4.497044e-002 
-4.466602e-002 
-4.512053e-002 
-4.525423e-002 
-4.476227e-002 
-4.481057e-002 
-4.525558e-002 
-4.497854e-002 
-4.454673e-002 
-4.491667e-002 
-4.513985e-002 
-4.466705e-002 
-4.456398e-002 
-4.499389e-002 
-4.485347e-002 
-4.446122e-002 
-4.479684e-002 
-4.501383e-002 
-4.458984e-002 
-4.454648e-002 
-4.505329e-002 
-4.485861e-002 
-4.439998e-002 
-4.479066e-002 
-4.515556e-002 
-4.458416e-002 
-4.430346e-002 
-4.489918e-002 
-4.495015e-002 
-4.430598e-002 
-4.440406e-002 
-4.496914e-002 
-4.465669e-002 
-4.418964e-002 
-4.468186e-002 
-4.495811e-002 
-4.436105e-002 
-4.425353e-002 
-4.495302e-002 
-4.488581e-002 
-4.426410e-002 
-4.451777e-002 
-4.503150e-002 
-4.464716e-002 
-4.422921e-002 
-4.468486e-002 
-4.490708e-002 
-4.438696e-002 
-4.424868e-002 
-4.472731e-002 
-4.464558e-002 
-4.423841e-002 
-4.438950e-002 
-4.467004e-002 
-4.441955e-002 
-4.420396e-002 
-4.447672e-002 
-4.453638e-002 
-4.427691e-002 
-4.428098e-002 
-4.445375e-002 
-4.434717e-002 
-4.415434e-002 
-4.428653e-002 
-4.435309e-002 
-4.420951e-002 
-4.413596e-002 
-4.423522e-002 
-4.424507e-002 
-4.410933e-002 
-4.412449e-002 
-4.423165e-002 
-4.417864e-002 
-4.402218e-002 
-4.410468e-002 
-4.426739e-002 
-4.426661e-002 
-4.413999e-002 
-4.411401e-002 
-4.428781e-002 
-4.426465e-002 
-4.412007e-002 
-4.415245e-002 
-4.423200e-002 
-4.417887e-002 
-4.404592e-002 
-4.408385e-002 
-4.414281e-002 
-4.399177e-002 
-4.393179e-002 
-4.407072e-002 
-4.402824e-002 
-4.376819e-002 
-4.381516e-002 
-4.400046e-002 
-4.387935e-002 
-4.364581e-002 
-4.383610e-002 
-4.400496e-002 
-4.370731e-002 
-4.358616e-002 
-4.386967e-002 
-4.390990e-002 
-4.361521e-002 
-4.366970e-002 
-4.396432e-002 
-4.376352e-002 
-4.351521e-002 
-4.378440e-002 
-4.390662e-002 
-4.355387e-002 
-4.348251e-002 
-4.386546e-002 
-4.383360e-002 
-4.350330e-002 
-4.369635e-002 
-4.400374e-002 
-4.372728e-002 
-4.347605e-002 
-4.379971e-002 
-4.386154e-002 
-4.348900e-002 
-4.351427e-002 
-4.379810e-002 
-4.361310e-002 
-4.336506e-002 
-4.363203e-002 
-4.374406e-002 
-4.343135e-002 
-4.339935e-002 
-4.370810e-002 
-4.361527e-002 
-4.333558e-002 
-4.355525e-002 
-4.371530e-002 
-4.338239e-002 
-4.325294e-002 
-4.354005e-002 
-4.354068e-002 
-4.322334e-002 
-4.330786e-002 
-4.347143e-002 
-4.329740e-002 
-4.312892e-002 
-4.335992e-002 
-4.337406e-002 
-4.317036e-002 
-4.320811e-002 
-4.335408e-002 
-4.325132e-002 
-4.313989e-002 
-4.325423e-002 
-4.328800e-002 
-4.316329e-002 
-4.324895e-002 
-4.339613e-002 
-4.325181e-002 
-4.314811e-002 
-4.340589e-002 
-4.347592e-002 
-4.323346e-002 
-4.329903e-002 
-4.354561e-002 
-4.340793e-002 
-4.316386e-002 
-4.334954e-002 
-4.345947e-002 
-4.324203e-002 
-4.314009e-002 
-4.331113e-002 
-4.324259e-002 
-4.304999e-002 
-4.315717e-002 
-4.330103e-002 
-4.306850e-002 
-4.295473e-002 
-4.325260e-002 
-4.333781e-002 
-4.301409e-002 
-4.305856e-002 
-4.332819e-002 
-4.314385e-002 
-4.296024e-002 
-4.315850e-002 
-4.323660e-002 
-4.294065e-002 
-4.296410e-002 
-4.318139e-002 
-4.298256e-002 
-4.273865e-002 
-4.290826e-002 
-4.302744e-002 
-4.279936e-002 
-4.272730e-002 
-4.297440e-002 
-4.287714e-002 
-4.260559e-002 
-4.275385e-002 
-4.290487e-002 
-4.261102e-002 
-4.249179e-002 
-4.273965e-002 
-4.271011e-002 
-4.237743e-002 
-4.243283e-002 
-4.269196e-002 
-4.250521e-002 
-4.224042e-002 
-4.249142e-002 
-4.267608e-002 
-4.239699e-002 
-4.228469e-002 
-4.263359e-002 
-4.266082e-002 
-4.236577e-002 
-4.242817e-002 
-4.274467e-002 
-4.261089e-002 
-4.230377e-002 
-4.245410e-002 
-4.268330e-002 
-4.246062e-002 
-4.225154e-002 
-4.247288e-002 
-4.258125e-002 
-4.234344e-002 
-4.234344e-002 
1.110223e-016 
-4.572863e-002 
-4.897102e-002 
-4.658698e-002 
-4.488070e-002 
-4.692547e-002 
-4.780125e-002 
-4.608745e-002 
-4.541116e-002 
-4.711261e-002 
-4.725749e-002 
-4.575112e-002 
-4.604158e-002 
-4.717418e-002 
-4.644017e-002 
-4.581957e-002 
-4.666535e-002 
-4.694086e-002 
-4.587196e-002 
-4.613015e-002 
-4.706533e-002 
-4.625786e-002 
-4.577158e-002 
-4.680853e-002 
-4.663160e-002 
-4.574135e-002 
-4.652165e-002 
-4.693199e-002 
-4.580916e-002 
-4.608038e-002 
-4.709809e-002 
-4.625992e-002 
-4.562141e-002 
-4.685513e-002 
-4.680743e-002 
-4.561049e-002 
-4.633724e-002 
-4.716646e-002 
-4.591216e-002 
-4.569824e-002 
-4.707209e-002 
-4.663916e-002 
-4.532243e-002 
-4.642298e-002 
-4.727286e-002 
-4.565802e-002 
-4.549762e-002 
-4.737829e-002 
-4.648821e-002 
-4.494818e-002 
-4.671409e-002 
-4.712175e-002 
-4.510304e-002 
-4.599658e-002 
-4.731619e-002 
-4.563126e-002 
-4.539452e-002 
-4.691150e-002 
-4.642030e-002 
-4.533031e-002 
-4.604948e-002 
-4.680905e-002 
-4.598663e-002 
-4.554074e-002 
-4.646889e-002 
-4.663470e-002 
-4.563564e-002 
-4.598537e-002 
-4.681479e-002 
-4.598178e-002 
-4.565783e-002 
-4.658099e-002 
-4.633330e-002 
-4.558915e-002 
-4.613910e-002 
-4.635750e-002 
-4.579898e-002 
-4.577404e-002 
-4.609393e-002 
-4.599440e-002 
-4.575486e-002 
-4.578484e-002 
-4.586061e-002 
-4.578603e-002 
-4.569140e-002 
-4.560564e-002 
-4.563564e-002 
-4.569254e-002 
-4.543599e-002 
-4.532338e-002 
-4.560467e-002 
-4.548867e-002 
-4.500454e-002 
-4.527696e-002 
-4.557938e-002 
-4.488553e-002 
-4.479624e-002 
-4.559073e-002 
-4.499925e-002 
-4.410570e-002 
-4.499145e-002 
-4.551795e-002 
-4.431363e-002 
-4.405726e-002 
-4.506844e-002 
-4.489574e-002 
-4.400117e-002 
-4.421762e-002 
-4.459996e-002 
-4.415329e-002 
-4.403054e-002 
-4.425568e-002 
-4.395663e-002 
-4.384428e-002 
-4.427035e-002 
-4.382925e-002 
-4.315200e-002 
-4.378385e-002 
-4.407337e-002 
-4.299248e-002 
-4.281252e-002 
-4.382427e-002 
-4.360558e-002 
-4.202363e-002 
-4.301947e-002 
-4.406684e-002 
-4.215129e-002 
-4.186366e-002 
-4.357139e-002 
-4.302456e-002 
-4.131202e-002 
-4.247421e-002 
-4.331567e-002 
-4.165755e-002 
-4.132489e-002 
-4.299753e-002 
-4.238952e-002 
-4.082223e-002 
-4.184526e-002 
-4.291073e-002 
-4.130049e-002 
-4.074277e-002 
-4.237192e-002 
-4.207270e-002 
-4.054883e-002 
-4.131574e-002 
-4.242290e-002 
-4.118091e-002 
-4.063357e-002 
-4.187446e-002 
-4.176371e-002 
-4.058197e-002 
-4.106626e-002 
-4.204229e-002 
-4.111927e-002 
-4.065763e-002 
-4.170005e-002 
-4.166117e-002 
-4.081695e-002 
-4.107595e-002 
-4.171734e-002 
-4.129036e-002 
-4.080040e-002 
-4.150221e-002 
-4.191008e-002 
-4.114698e-002 
-4.098408e-002 
-4.178157e-002 
-4.158450e-002 
-4.093358e-002 
-4.145307e-002 
-4.207716e-002 
-4.153318e-002 
-4.117050e-002 
-4.188109e-002 
-4.207958e-002 
-4.137738e-002 
-4.139078e-002 