# vtk DataFile Version 2.0
2D-ADE data file 
ASCII
DATASET RECTILINEAR_GRID
DIMENSIONS 512 128 1
X_COORDINATES 512 int
0 1 2 3 4 5 6 7 8 9 10 11 12 13 14 15 16 17 18 19 20 21 22 23 24 25 26 27 28 29 30 31 32 33 34 35 36 37 38 39 40 41 42 43 44 45 46 47 48 49 50 51 52 53 54 55 56 57 58 59 60 61 62 63 64 65 66 67 68 69 70 71 72 73 74 75 76 77 78 79 80 81 82 83 84 85 86 87 88 89 90 91 92 93 94 95 96 97 98 99 100 101 102 103 104 105 106 107 108 109 110 111 112 113 114 115 116 117 118 119 120 121 122 123 124 125 126 127 128 129 130 131 132 133 134 135 136 137 138 139 140 141 142 143 144 145 146 147 148 149 150 151 152 153 154 155 156 157 158 159 160 161 162 163 164 165 166 167 168 169 170 171 172 173 174 175 176 177 178 179 180 181 182 183 184 185 186 187 188 189 190 191 192 193 194 195 196 197 198 199 200 201 202 203 204 205 206 207 208 209 210 211 212 213 214 215 216 217 218 219 220 221 222 223 224 225 226 227 228 229 230 231 232 233 234 235 236 237 238 239 240 241 242 243 244 245 246 247 248 249 250 251 252 253 254 255 256 257 258 259 260 261 262 263 264 265 266 267 268 269 270 271 272 273 274 275 276 277 278 279 280 281 282 283 284 285 286 287 288 289 290 291 292 293 294 295 296 297 298 299 300 301 302 303 304 305 306 307 308 309 310 311 312 313 314 315 316 317 318 319 320 321 322 323 324 325 326 327 328 329 330 331 332 333 334 335 336 337 338 339 340 341 342 343 344 345 346 347 348 349 350 351 352 353 354 355 356 357 358 359 360 361 362 363 364 365 366 367 368 369 370 371 372 373 374 375 376 377 378 379 380 381 382 383 384 385 386 387 388 389 390 391 392 393 394 395 396 397 398 399 400 401 402 403 404 405 406 407 408 409 410 411 412 413 414 415 416 417 418 419 420 421 422 423 424 425 426 427 428 429 430 431 432 433 434 435 436 437 438 439 440 441 442 443 444 445 446 447 448 449 450 451 452 453 454 455 456 457 458 459 460 461 462 463 464 465 466 467 468 469 470 471 472 473 474 475 476 477 478 479 480 481 482 483 484 485 486 487 488 489 490 491 492 493 494 495 496 497 498 499 500 501 502 503 504 505 506 507 508 509 510 511 
Y_COORDINATES 128 int
0 1 2 3 4 5 6 7 8 9 10 11 12 13 14 15 16 17 18 19 20 21 22 23 24 25 26 27 28 29 30 31 32 33 34 35 36 37 38 39 40 41 42 43 44 45 46 47 48 49 50 51 52 53 54 55 56 57 58 59 60 61 62 63 64 65 66 67 68 69 70 71 72 73 74 75 76 77 78 79 80 81 82 83 84 85 86 87 88 89 90 91 92 93 94 95 96 97 98 99 100 101 102 103 104 105 106 107 108 109 110 111 112 113 114 115 116 117 118 119 120 121 122 123 124 125 126 127 
Z_COORDINATES 1 int
0
POINT_DATA 65536 
SCALARS density double 1
LOOKUP_TABLE default
-2.197247e-002 
-3.182728e-002 
-2.837420e-002 
-2.791497e-002 
-2.807610e-002 
-2.800559e-002 
-2.809884e-002 
-2.805102e-002 
-2.803911e-002 
-2.800425e-002 
-2.808197e-002 
-2.803242e-002 
-2.808405e-002 
-2.794998e-002 
-2.803667e-002 
-2.813912e-002 
-2.794663e-002 
-2.798806e-002 
-2.811636e-002 
-2.800748e-002 
-2.797265e-002 
-2.804117e-002 
-2.803682e-002 
-2.801213e-002 
-2.800414e-002 
-2.799066e-002 
-2.804261e-002 
-2.802958e-002 
-2.794705e-002 
-2.799830e-002 
-2.808680e-002 
-2.796769e-002 
-2.790067e-002 
-2.808498e-002 
-2.806298e-002 
-2.783737e-002 
-2.799247e-002 
-2.815123e-002 
-2.788494e-002 
-2.785250e-002 
-2.814858e-002 
-2.800924e-002 
-2.777433e-002 
-2.803206e-002 
-2.814474e-002 
-2.779222e-002 
-2.788301e-002 
-2.816403e-002 
-2.793123e-002 
-2.774716e-002 
-2.812202e-002 
-2.800452e-002 
-2.777428e-002 
-2.801526e-002 
-2.800529e-002 
-2.785964e-002 
-2.792518e-002 
-2.796351e-002 
-2.791892e-002 
-2.791709e-002 
-2.789301e-002 
-2.791168e-002 
-2.794097e-002 
-2.788803e-002 
-2.783433e-002 
-2.793686e-002 
-2.795412e-002 
-2.773683e-002 
-2.791339e-002 
-2.796703e-002 
-2.775390e-002 
-2.782633e-002 
-2.795487e-002 
-2.778637e-002 
-2.778730e-002 
-2.788590e-002 
-2.781589e-002 
-2.778258e-002 
-2.780472e-002 
-2.780517e-002 
-2.779479e-002 
-2.776763e-002 
-2.774016e-002 
-2.778428e-002 
-2.777505e-002 
-2.770005e-002 
-2.770943e-002 
-2.779093e-002 
-2.769201e-002 
-2.763791e-002 
-2.771348e-002 
-2.771404e-002 
-2.761988e-002 
-2.761536e-002 
-2.771465e-002 
-2.763574e-002 
-2.748279e-002 
-2.764691e-002 
-2.766945e-002 
-2.743662e-002 
-2.749696e-002 
-2.768660e-002 
-2.748923e-002 
-2.730725e-002 
-2.755558e-002 
-2.760837e-002 
-2.731653e-002 
-2.730589e-002 
-2.755886e-002 
-2.744381e-002 
-2.723412e-002 
-2.734918e-002 
-2.748182e-002 
-2.724102e-002 
-2.722297e-002 
-2.740248e-002 
-2.726979e-002 
-2.720033e-002 
-2.722591e-002 
-2.726535e-002 
-2.724285e-002 
-2.701666e-002 
-2.730749e-002 
-2.720815e-002 
-2.695571e-002 
-2.725587e-002 
-2.715584e-002 
-2.702201e-002 
-2.704005e-002 
-2.724248e-002 
-2.699781e-002 
-2.694030e-002 
-2.717522e-002 
-2.708972e-002 
-2.688160e-002 
-2.702347e-002 
-2.715266e-002 
-2.692233e-002 
-2.690055e-002 
-2.709822e-002 
-2.705121e-002 
-2.685367e-002 
-2.698979e-002 
-2.709047e-002 
-2.692500e-002 
-2.688219e-002 
-2.706938e-002 
-2.700723e-002 
-2.688813e-002 
-2.697119e-002 
-2.707374e-002 
-2.694120e-002 
-2.691369e-002 
-2.707652e-002 
-2.702610e-002 
-2.689822e-002 
-2.703072e-002 
-2.709118e-002 
-2.695701e-002 
-2.698741e-002 
-2.711618e-002 
-2.705013e-002 
-2.698529e-002 
-2.708058e-002 
-2.712410e-002 
-2.703845e-002 
-2.704699e-002 
-2.713037e-002 
-2.710125e-002 
-2.705803e-002 
-2.713819e-002 
-2.718899e-002 
-2.709862e-002 
-2.706573e-002 
-2.718262e-002 
-2.721067e-002 
-2.708363e-002 
-2.709854e-002 
-2.723209e-002 
-2.719204e-002 
-2.706337e-002 
-2.714463e-002 
-2.725200e-002 
-2.715096e-002 
-2.708594e-002 
-2.721060e-002 
-2.725351e-002 
-2.712812e-002 
-2.713673e-002 
-2.727294e-002 
-2.722107e-002 
-2.710807e-002 
-2.721315e-002 
-2.729693e-002 
-2.716870e-002 
-2.713873e-002 
-2.729221e-002 
-2.727750e-002 
-2.713598e-002 
-2.721350e-002 
-2.733922e-002 
-2.722577e-002 
-2.714870e-002 
-2.729839e-002 
-2.733068e-002 
-2.717899e-002 
-2.721402e-002 
-2.736443e-002 
-2.728957e-002 
-2.718251e-002 
-2.730684e-002 
-2.737448e-002 
-2.723305e-002 
-2.720947e-002 
-2.735990e-002 
-2.731605e-002 
-2.715250e-002 
-2.722505e-002 
-2.728910e-002 
-2.710083e-002 
-2.700968e-002 
-2.710077e-002 
-2.701853e-002 
-2.684185e-002 
-2.688121e-002 
-2.695449e-002 
-2.685257e-002 
-2.681314e-002 
-2.695495e-002 
-2.700094e-002 
-2.694976e-002 
-2.704097e-002 
-2.718530e-002 
-2.719324e-002 
-2.722240e-002 
-2.738351e-002 
-2.747676e-002 
-2.748158e-002 
-2.758047e-002 
-2.771501e-002 
-2.773226e-002 
-2.773129e-002 
-2.781983e-002 
-2.786970e-002 
-2.781507e-002 
-2.781585e-002 
-2.788324e-002 
-2.786121e-002 
-2.779103e-002 
-2.782435e-002 
-2.787375e-002 
-2.780841e-002 
-2.777093e-002 
-2.783277e-002 
-2.784128e-002 
-2.776487e-002 
-2.777337e-002 
-2.783183e-002 
-2.780016e-002 
-2.774860e-002 
-2.778854e-002 
-2.781630e-002 
-2.776641e-002 
-2.775722e-002 
-2.780147e-002 
-2.779329e-002 
-2.775939e-002 
-2.777671e-002 
-2.779351e-002 
-2.777021e-002 
-2.775858e-002 
-2.777582e-002 
-2.776968e-002 
-2.774706e-002 
-2.775277e-002 
-2.776266e-002 
-2.773852e-002 
-2.772653e-002 
-2.774576e-002 
-2.773694e-002 
-2.770753e-002 
-2.771840e-002 
-2.773626e-002 
-2.771179e-002 
-2.769608e-002 
-2.772373e-002 
-2.772399e-002 
-2.769627e-002 
-2.769983e-002 
-2.772542e-002 
-2.770748e-002 
-2.768999e-002 
-2.771758e-002 
-2.772865e-002 
-2.770215e-002 
-2.770973e-002 
-2.773985e-002 
-2.773002e-002 
-2.770810e-002 
-2.773429e-002 
-2.775357e-002 
-2.772697e-002 
-2.771667e-002 
-2.774875e-002 
-2.774981e-002 
-2.771317e-002 
-2.771506e-002 
-2.774942e-002 
-2.771941e-002 
-2.768211e-002 
-2.770581e-002 
-2.771617e-002 
-2.767340e-002 
-2.765046e-002 
-2.768598e-002 
-2.767384e-002 
-2.761975e-002 
-2.763028e-002 
-2.767185e-002 
-2.762864e-002 
-2.758448e-002 
-2.762663e-002 
-2.763505e-002 
-2.756686e-002 
-2.756440e-002 
-2.760621e-002 
-2.758153e-002 
-2.753739e-002 
-2.756305e-002 
-2.759340e-002 
-2.753749e-002 
-2.752298e-002 
-2.757070e-002 
-2.754531e-002 
-2.747318e-002 
-2.749847e-002 
-2.750810e-002 
-2.744025e-002 
-2.743634e-002 
-2.747045e-002 
-2.744384e-002 
-2.740913e-002 
-2.743156e-002 
-2.743607e-002 
-2.740301e-002 
-2.739775e-002 
-2.741750e-002 
-2.740495e-002 
-2.738545e-002 
-2.739562e-002 
-2.740555e-002 
-2.738819e-002 
-2.738297e-002 
-2.740092e-002 
-2.740256e-002 
-2.738375e-002 
-2.739448e-002 
-2.741851e-002 
-2.740408e-002 
-2.739065e-002 
-2.742602e-002 
-2.743920e-002 
-2.740576e-002 
-2.742138e-002 
-2.747210e-002 
-2.744984e-002 
-2.742356e-002 
-2.748205e-002 
-2.750808e-002 
-2.745683e-002 
-2.747702e-002 
-2.754782e-002 
-2.752263e-002 
-2.748743e-002 
-2.755587e-002 
-2.759073e-002 
-2.753722e-002 
-2.755496e-002 
-2.763063e-002 
-2.761364e-002 
-2.757957e-002 
-2.764214e-002 
-2.768561e-002 
-2.764461e-002 
-2.765669e-002 
-2.773435e-002 
-2.773763e-002 
-2.770783e-002 
-2.776504e-002 
-2.782289e-002 
-2.779144e-002 
-2.778615e-002 
-2.785369e-002 
-2.785085e-002 
-2.778990e-002 
-2.780684e-002 
-2.784250e-002 
-2.778316e-002 
-2.773908e-002 
-2.778311e-002 
-2.776850e-002 
-2.768554e-002 
-2.768914e-002 
-2.772277e-002 
-2.764868e-002 
-2.759165e-002 
-2.763040e-002 
-2.762456e-002 
-2.758037e-002 
-2.762876e-002 
-2.770791e-002 
-2.771722e-002 
-2.772408e-002 
-2.777115e-002 
-2.778669e-002 
-2.775124e-002 
-2.774871e-002 
-2.777228e-002 
-2.776020e-002 
-2.773691e-002 
-2.774190e-002 
-2.774591e-002 
-2.772558e-002 
-2.770920e-002 
-2.771180e-002 
-2.770830e-002 
-2.768981e-002 
-2.768001e-002 
-2.768105e-002 
-2.767606e-002 
-2.765975e-002 
-2.765003e-002 
-2.765171e-002 
-2.764547e-002 
-2.762400e-002 
-2.762151e-002 
-2.762351e-002 
-2.760811e-002 
-2.759139e-002 
-2.759729e-002 
-2.759192e-002 
-2.757014e-002 
-2.756631e-002 
-2.757062e-002 
-2.755076e-002 
-2.753365e-002 
-2.753786e-002 
-2.752574e-002 
-2.749716e-002 
-2.749098e-002 
-2.748687e-002 
-2.745493e-002 
-2.743165e-002 
-2.742953e-002 
-2.740526e-002 
-2.736539e-002 
-2.735504e-002 
-2.734358e-002 
-2.730193e-002 
-2.727223e-002 
-2.727110e-002 
-2.724367e-002 
-2.720209e-002 
-2.719354e-002 
-2.719090e-002 
-2.715436e-002 
-2.713286e-002 
-2.714114e-002 
-2.713245e-002 
-2.710276e-002 
-2.711109e-002 
-2.712784e-002 
-2.711555e-002 
-2.711248e-002 
-2.714589e-002 
-2.715881e-002 
-2.715931e-002 
-2.718585e-002 
-2.722869e-002 
-2.724126e-002 
-2.726608e-002 
-2.731413e-002 
-2.735325e-002 
-2.737678e-002 
-2.741981e-002 
-2.747154e-002 
-2.750100e-002 
-2.753766e-002 
-2.758517e-002 
-2.762749e-002 
-2.765598e-002 
-2.770033e-002 
-2.774186e-002 
-2.777221e-002 
-2.780814e-002 
-2.784698e-002 
-2.787814e-002 
-2.790921e-002 
-2.794648e-002 
-2.797468e-002 
-2.800184e-002 
-2.803775e-002 
-2.806727e-002 
-2.809105e-002 
-2.812492e-002 
-2.815837e-002 
-2.818222e-002 
-2.821178e-002 
-2.825052e-002 
-2.827699e-002 
-2.830672e-002 
-2.245100e-002 
1.110223e-016 
-4.833225e-002 
-4.208625e-002 
-4.512544e-002 
-4.866696e-002 
-4.628696e-002 
-4.442379e-002 
-4.649010e-002 
-4.741870e-002 
-4.518719e-002 
-4.523265e-002 
-4.728689e-002 
-4.639131e-002 
-4.486057e-002 
-4.614322e-002 
-4.692493e-002 
-4.561485e-002 
-4.529602e-002 
-4.676468e-002 
-4.631277e-002 
-4.501923e-002 
-4.603513e-002 
-4.673813e-002 
-4.549867e-002 
-4.547657e-002 
-4.651010e-002 
-4.589678e-002 
-4.528342e-002 
-4.624029e-002 
-4.624832e-002 
-4.525568e-002 
-4.574511e-002 
-4.644264e-002 
-4.553039e-002 
-4.532780e-002 
-4.628839e-002 
-4.588698e-002 
-4.512135e-002 
-4.597583e-002 
-4.626160e-002 
-4.509779e-002 
-4.531386e-002 
-4.649044e-002 
-4.567072e-002 
-4.470851e-002 
-4.606811e-002 
-4.630790e-002 
-4.472981e-002 
-4.534929e-002 
-4.663783e-002 
-4.498066e-002 
-4.469739e-002 
-4.664500e-002 
-4.562448e-002 
-4.436152e-002 
-4.586304e-002 
-4.619608e-002 
-4.465206e-002 
-4.500063e-002 
-4.620653e-002 
-4.537345e-002 
-4.442680e-002 
-4.549417e-002 
-4.597294e-002 
-4.468819e-002 
-4.472863e-002 
-4.578921e-002 
-4.518292e-002 
-4.430290e-002 
-4.540554e-002 
-4.559691e-002 
-4.419946e-002 
-4.467750e-002 
-4.567394e-002 
-4.468278e-002 
-4.418763e-002 
-4.514021e-002 
-4.496387e-002 
-4.422878e-002 
-4.460526e-002 
-4.488411e-002 
-4.425842e-002 
-4.430498e-002 
-4.468648e-002 
-4.427405e-002 
-4.403069e-002 
-4.437247e-002 
-4.428340e-002 
-4.402510e-002 
-4.398939e-002 
-4.385866e-002 
-4.386445e-002 
-4.384645e-002 
-4.365602e-002 
-4.372687e-002 
-4.387322e-002 
-4.345071e-002 
-4.270467e-002 
-4.315874e-002 
-4.397295e-002 
-4.331388e-002 
-4.231060e-002 
-4.256263e-002 
-4.316877e-002 
-4.297179e-002 
-4.249882e-002 
-4.205935e-002 
-4.220063e-002 
-4.270625e-002 
-4.247027e-002 
-4.160548e-002 
-4.175940e-002 
-4.243493e-002 
-4.179025e-002 
-4.095111e-002 
-4.177468e-002 
-4.225534e-002 
-4.087327e-002 
-4.069725e-002 
-4.166587e-002 
-4.142323e-002 
-4.026206e-002 
-4.049995e-002 
-4.190026e-002 
-4.051025e-002 
-3.941820e-002 
-4.126378e-002 
-4.138790e-002 
-3.936063e-002 
-3.970868e-002 
-4.147519e-002 
-4.023984e-002 
-3.897269e-002 
-4.041113e-002 
-4.089083e-002 
-3.924155e-002 
-3.935229e-002 
-4.066822e-002 
-3.994171e-002 
-3.899512e-002 
-4.000218e-002 
-4.032801e-002 
-3.922753e-002 
-3.941869e-002 
-4.029164e-002 
-3.964124e-002 
-3.909600e-002 
-3.999664e-002 
-4.013386e-002 
-3.918886e-002 
-3.945499e-002 
-4.032103e-002 
-3.969806e-002 
-3.922950e-002 
-4.019847e-002 
-4.028037e-002 
-3.924077e-002 
-3.958694e-002 
-4.058729e-002 
-4.014880e-002 
-3.957036e-002 
-4.018580e-002 
-4.042596e-002 
-3.989893e-002 
-4.019974e-002 
-4.079234e-002 
-4.019837e-002 
-3.969599e-002 
-4.060564e-002 
-4.112829e-002 
-4.030253e-002 
-4.009098e-002 
-4.096716e-002 
-4.099131e-002 
-4.024938e-002 
-4.046056e-002 
-4.113733e-002 
-4.087985e-002 
-4.039972e-002 
-4.073666e-002 
-4.104060e-002 
-4.068307e-002 
-4.060977e-002 
-4.098404e-002 
-4.093000e-002 
-4.065922e-002 
-4.093647e-002 
-4.119676e-002 
-4.087871e-002 
-4.076179e-002 
-4.119446e-002 
-4.121630e-002 
-4.080378e-002 
-4.095633e-002 
-4.139356e-002 
-4.115634e-002 
-4.084932e-002 
-4.124521e-002 
-4.147796e-002 
-4.108960e-002 
-4.105679e-002 
-4.148213e-002 
-4.142850e-002 
-4.109755e-002 
-4.129940e-002 
-4.160856e-002 
-4.137120e-002 
-4.124011e-002 
-4.161157e-002 
-4.168728e-002 
-4.136653e-002 
-4.144316e-002 
-4.176300e-002 
-4.156894e-002 
-4.126045e-002 
-4.154410e-002 
-4.161591e-002 
-4.104941e-002 
-4.081365e-002 
-4.091466e-002 
-4.047407e-002 
-3.975760e-002 
-3.964297e-002 
-3.961496e-002 
-3.905010e-002 
-3.876955e-002 
-3.914677e-002 
-3.923247e-002 
-3.907259e-002 
-3.948094e-002 
-4.002866e-002 
-4.014177e-002 
-4.043848e-002 
-4.112077e-002 
-4.155027e-002 
-4.184631e-002 
-4.248477e-002 
-4.310036e-002 
-4.341918e-002 
-4.382575e-002 
-4.433367e-002 
-4.456389e-002 
-4.463241e-002 
-4.484521e-002 
-4.499451e-002 
-4.487701e-002 
-4.482364e-002 
-4.495874e-002 
-4.492510e-002 
-4.469377e-002 
-4.470189e-002 
-4.487130e-002 
-4.476991e-002 
-4.455609e-002 
-4.462993e-002 
-4.474776e-002 
-4.459978e-002 
-4.450320e-002 
-4.461009e-002 
-4.460230e-002 
-4.448477e-002 
-4.452306e-002 
-4.457869e-002 
-4.447584e-002 
-4.446299e-002 
-4.459858e-002 
-4.455037e-002 
-4.439290e-002 
-4.449099e-002 
-4.460896e-002 
-4.441661e-002 
-4.430925e-002 
-4.449610e-002 
-4.448455e-002 
-4.424105e-002 
-4.427299e-002 
-4.443124e-002 
-4.426933e-002 
-4.410625e-002 
-4.424951e-002 
-4.427677e-002 
-4.406995e-002 
-4.407644e-002 
-4.421919e-002 
-4.413930e-002 
-4.402436e-002 
-4.410410e-002 
-4.416105e-002 
-4.407738e-002 
-4.401842e-002 
-4.406790e-002 
-4.411308e-002 
-4.409430e-002 
-4.410161e-002 
-4.415098e-002 
-4.415680e-002 
-4.413815e-002 
-4.417517e-002 
-4.421893e-002 
-4.422570e-002 
-4.423698e-002 
-4.425395e-002 
-4.424191e-002 
-4.423143e-002 
-4.424847e-002 
-4.424306e-002 
-4.421416e-002 
-4.416629e-002 
-4.413965e-002 
-4.408547e-002 
-4.401974e-002 
-4.399155e-002 
-4.395930e-002 
-4.387411e-002 
-4.380638e-002 
-4.376122e-002 
-4.370247e-002 
-4.367987e-002 
-4.368174e-002 
-4.363315e-002 
-4.353172e-002 
-4.348444e-002 
-4.350998e-002 
-4.342986e-002 
-4.324784e-002 
-4.325650e-002 
-4.333719e-002 
-4.321914e-002 
-4.311383e-002 
-4.320661e-002 
-4.327328e-002 
-4.310069e-002 
-4.299384e-002 
-4.309499e-002 
-4.299536e-002 
-4.266694e-002 
-4.263383e-002 
-4.271299e-002 
-4.252100e-002 
-4.240602e-002 
-4.255219e-002 
-4.249835e-002 
-4.227759e-002 
-4.232889e-002 
-4.241956e-002 
-4.224858e-002 
-4.217317e-002 
-4.231028e-002 
-4.226105e-002 
-4.211298e-002 
-4.220038e-002 
-4.227143e-002 
-4.213560e-002 
-4.213534e-002 
-4.227522e-002 
-4.222139e-002 
-4.214014e-002 
-4.227035e-002 
-4.233389e-002 
-4.223549e-002 
-4.227926e-002 
-4.242295e-002 
-4.240765e-002 
-4.236912e-002 
-4.248384e-002 
-4.258529e-002 
-4.256679e-002 
-4.258532e-002 
-4.270844e-002 
-4.279861e-002 
-4.279158e-002 
-4.283248e-002 
-4.297949e-002 
-4.305168e-002 
-4.302950e-002 
-4.313082e-002 
-4.329701e-002 
-4.330558e-002 
-4.331635e-002 
-4.349693e-002 
-4.360845e-002 
-4.358808e-002 
-4.369847e-002 
-4.388715e-002 
-4.393811e-002 
-4.400899e-002 
-4.420508e-002 
-4.432825e-002 
-4.439772e-002 
-4.457876e-002 
-4.471936e-002 
-4.471384e-002 
-4.474708e-002 
-4.482686e-002 
-4.477307e-002 
-4.467449e-002 
-4.466761e-002 
-4.461932e-002 
-4.447910e-002 
-4.438064e-002 
-4.430532e-002 
-4.416148e-002 
-4.401483e-002 
-4.391612e-002 
-4.379806e-002 
-4.360062e-002 
-4.341923e-002 
-4.338443e-002 
-4.347303e-002 
-4.364162e-002 
-4.390188e-002 
-4.416545e-002 
-4.433924e-002 
-4.445143e-002 
-4.448728e-002 
-4.441689e-002 
-4.435168e-002 
-4.439444e-002 
-4.440507e-002 
-4.430353e-002 
-4.427058e-002 
-4.429246e-002 
-4.418701e-002 
-4.408320e-002 
-4.411736e-002 
-4.408655e-002 
-4.393515e-002 
-4.391309e-002 
-4.397128e-002 
-4.386181e-002 
-4.373893e-002 
-4.378106e-002 
-4.378200e-002 
-4.363552e-002 
-4.357159e-002 
-4.362202e-002 
-4.356643e-002 
-4.342292e-002 
-4.340990e-002 
-4.345610e-002 
-4.335119e-002 
-4.322958e-002 
-4.326566e-002 
-4.327052e-002 
-4.311505e-002 
-4.303125e-002 
-4.308096e-002 
-4.300206e-002 
-4.280584e-002 
-4.276530e-002 
-4.277671e-002 
-4.258782e-002 
-4.239769e-002 
-4.239495e-002 
-4.230638e-002 
-4.204051e-002 
-4.191659e-002 
-4.190590e-002 
-4.169391e-002 
-4.144639e-002 
-4.141969e-002 
-4.134165e-002 
-4.107077e-002 
-4.094519e-002 
-4.097047e-002 
-4.081684e-002 
-4.061084e-002 
-4.063446e-002 
-4.065253e-002 
-4.049082e-002 
-4.044395e-002 
-4.057631e-002 
-4.057732e-002 
-4.050820e-002 
-4.063266e-002 
-4.081021e-002 
-4.082878e-002 
-4.090330e-002 
-4.115555e-002 
-4.134778e-002 
-4.142729e-002 
-4.165433e-002 
-4.197413e-002 
-4.214991e-002 
-4.230239e-002 
-4.262546e-002 
-4.291436e-002 
-4.305400e-002 
-4.328434e-002 
-4.362111e-002 
-4.383099e-002 
-4.398289e-002 
-4.426410e-002 
-4.453260e-002 
-4.467498e-002 
-4.486916e-002 
-4.513907e-002 
-4.532447e-002 
-4.546940e-002 
-4.568397e-002 
-4.589075e-002 
-4.603877e-002 
-4.621415e-002 
-4.642004e-002 
-4.659286e-002 
-4.675189e-002 
-4.693877e-002 
-4.713365e-002 
-4.731129e-002 
-4.749312e-002 
-4.768872e-002 
-4.768872e-002 
1.110223e-016 
-4.734548e-002 
-4.669128e-002 
-4.591873e-002 
-4.517312e-002 
-4.653822e-002 
-4.672632e-002 
-4.568625e-002 
-4.567632e-002 
-4.667537e-002 
-4.628158e-002 
-4.545921e-002 
-4.585947e-002 
-4.693886e-002 
-4.583111e-002 
-4.505672e-002 
-4.667420e-002 
-4.656319e-002 
-4.517541e-002 
-4.584297e-002 
-4.662539e-002 
-4.578373e-002 
-4.547765e-002 
-4.617484e-002 
-4.620138e-002 
-4.567189e-002 
-4.565627e-002 
-4.606197e-002 
-4.608425e-002 
-4.566363e-002 
-4.559007e-002 
-4.608377e-002 
-4.607288e-002 
-4.535556e-002 
-4.561903e-002 
-4.638735e-002 
-4.562103e-002 
-4.510150e-002 
-4.621913e-002 
-4.612368e-002 
-4.491737e-002 
-4.566427e-002 
-4.647006e-002 
-4.523850e-002 
-4.503182e-002 
-4.637053e-002 
-4.577414e-002 
-4.482837e-002 
-4.583612e-002 
-4.611114e-002 
-4.494243e-002 
-4.550947e-002 
-4.595440e-002 
-4.518512e-002 
-4.550531e-002 
-4.561431e-002 
-4.521884e-002 
-4.552705e-002 
-4.551845e-002 
-4.508208e-002 
-4.545170e-002 
-4.557109e-002 
-4.491870e-002 
-4.512039e-002 
-4.581165e-002 
-4.497771e-002 
-4.452764e-002 
-4.580262e-002 
-4.522658e-002 
-4.431330e-002 
-4.530077e-002 
-4.540663e-002 
-4.443172e-002 
-4.480220e-002 
-4.525161e-002 
-4.470886e-002 
-4.448661e-002 
-4.480908e-002 
-4.491335e-002 
-4.446056e-002 
-4.431125e-002 
-4.471949e-002 
-4.468911e-002 
-4.406684e-002 
-4.419650e-002 
-4.465649e-002 
-4.426857e-002 
-4.378174e-002 
-4.420232e-002 
-4.432942e-002 
-4.372302e-002 
-4.358911e-002 
-4.404902e-002 
-4.401018e-002 
-4.333011e-002 
-4.346059e-002 
-4.388958e-002 
-4.302344e-002 
-4.287527e-002 
-4.390838e-002 
-4.331336e-002 
-4.197549e-002 
-4.290342e-002 
-4.387616e-002 
-4.224967e-002 
-4.156869e-002 
-4.318802e-002 
-4.315682e-002 
-4.135941e-002 
-4.173702e-002 
-4.306136e-002 
-4.206583e-002 
-4.085382e-002 
-4.211295e-002 
-4.242653e-002 
-4.093899e-002 
-4.110153e-002 
-4.190938e-002 
-4.154910e-002 
-4.050295e-002 
-4.076074e-002 
-4.202128e-002 
-4.032616e-002 
-4.012227e-002 
-4.159751e-002 
-4.054337e-002 
-3.995997e-002 
-4.069046e-002 
-4.090202e-002 
-3.962682e-002 
-4.018722e-002 
-4.086055e-002 
-3.981330e-002 
-3.954099e-002 
-4.053886e-002 
-4.016838e-002 
-3.919303e-002 
-3.990887e-002 
-4.042365e-002 
-3.949813e-002 
-3.930588e-002 
-4.028474e-002 
-3.995875e-002 
-3.910214e-002 
-3.964679e-002 
-4.019782e-002 
-3.943708e-002 
-3.935870e-002 
-4.007797e-002 
-3.991477e-002 
-3.917938e-002 
-3.968472e-002 
-4.027397e-002 
-3.965554e-002 
-3.949682e-002 
-4.009572e-002 
-3.983494e-002 
-3.958338e-002 
-4.022526e-002 
-4.032292e-002 
-3.970454e-002 
-3.985978e-002 
-4.045210e-002 
-4.035594e-002 
-4.009032e-002 
-4.030729e-002 
-4.036340e-002 
-4.011894e-002 
-4.033383e-002 
-4.079985e-002 
-4.066396e-002 
-4.029477e-002 
-4.055741e-002 
-4.093046e-002 
-4.059174e-002 
-4.038971e-002 
-4.095890e-002 
-4.106013e-002 
-4.041147e-002 
-4.050222e-002 
-4.120171e-002 
-4.091456e-002 
-4.030616e-002 
-4.079852e-002 
-4.132761e-002 
-4.075992e-002 
-4.048364e-002 
-4.122670e-002 
-4.134796e-002 
-4.059958e-002 
-4.079820e-002 
-4.151109e-002 
-4.108411e-002 
-4.057490e-002 
-4.125608e-002 
-4.158411e-002 
-4.081971e-002 
-4.083675e-002 
-4.167840e-002 
-4.141462e-002 
-4.072178e-002 
-4.130515e-002 
-4.184703e-002 
-4.111222e-002 
-4.087739e-002 
-4.174557e-002 
-4.172738e-002 
-4.096119e-002 
-4.135913e-002 
-4.205746e-002 
-4.147845e-002 
-4.104932e-002 
-4.177888e-002 
-4.196081e-002 
-4.112878e-002 
-4.118034e-002 
-4.188450e-002 
-4.131113e-002 
-4.045903e-002 
-4.079741e-002 
-4.071756e-002 
-3.959358e-002 
-3.926158e-002 
-3.965900e-002 
-3.918595e-002 
-3.853017e-002 
-3.895564e-002 
-3.941991e-002 
-3.908579e-002 
-3.920574e-002 
-4.005583e-002 
-4.035189e-002 
-4.028345e-002 
-4.095281e-002 
-4.171824e-002 
-4.181477e-002 
-4.218944e-002 
-4.311534e-002 
-4.355067e-002 
-4.359083e-002 
-4.414047e-002 
-4.473541e-002 
-4.464557e-002 
-4.456302e-002 
-4.500601e-002 
-4.511189e-002 
-4.471140e-002 
-4.473723e-002 
-4.508745e-002 
-4.486249e-002 
-4.448896e-002 
-4.477522e-002 
-4.499553e-002 
-4.458095e-002 
-4.440460e-002 
-4.479208e-002 
-4.478650e-002 
-4.439009e-002 
-4.446762e-002 
-4.477361e-002 
-4.456716e-002 
-4.431736e-002 
-4.455165e-002 
-4.469388e-002 
-4.444436e-002 
-4.439177e-002 
-4.460441e-002 
-4.458201e-002 
-4.439928e-002 
-4.443699e-002 
-4.453500e-002 
-4.443971e-002 
-4.434623e-002 
-4.441356e-002 
-4.440042e-002 
-4.427813e-002 
-4.429433e-002 
-4.433780e-002 
-4.420366e-002 
-4.413965e-002 
-4.424298e-002 
-4.419693e-002 
-4.404732e-002 
-4.411564e-002 
-4.421495e-002 
-4.408067e-002 
-4.402791e-002 
-4.415883e-002 
-4.414173e-002 
-4.398806e-002 
-4.405424e-002 
-4.414874e-002 
-4.403677e-002 
-4.401221e-002 
-4.419476e-002 
-4.419477e-002 
-4.405878e-002 
-4.416393e-002 
-4.433748e-002 
-4.421808e-002 
-4.411928e-002 
-4.430575e-002 
-4.438149e-002 
-4.416328e-002 
-4.413816e-002 
-4.434792e-002 
-4.428967e-002 
-4.402570e-002 
-4.411600e-002 
-4.423969e-002 
-4.399835e-002 
-4.382612e-002 
-4.402414e-002 
-4.403196e-002 
-4.366162e-002 
-4.362424e-002 
-4.392117e-002 
-4.379547e-002 
-4.343071e-002 
-4.359590e-002 
-4.380584e-002 
-4.345052e-002 
-4.322906e-002 
-4.351322e-002 
-4.347476e-002 
-4.308254e-002 
-4.313162e-002 
-4.340867e-002 
-4.323656e-002 
-4.297234e-002 
-4.321325e-002 
-4.331257e-002 
-4.296479e-002 
-4.289347e-002 
-4.307379e-002 
-4.276954e-002 
-4.246499e-002 
-4.263082e-002 
-4.265171e-002 
-4.240273e-002 
-4.240051e-002 
-4.253466e-002 
-4.240034e-002 
-4.224225e-002 
-4.232552e-002 
-4.236444e-002 
-4.221399e-002 
-4.217392e-002 
-4.227662e-002 
-4.223845e-002 
-4.211828e-002 
-4.218016e-002 
-4.226272e-002 
-4.215623e-002 
-4.211942e-002 
-4.227532e-002 
-4.226809e-002 
-4.212755e-002 
-4.225537e-002 
-4.241917e-002 
-4.225721e-002 
-4.222172e-002 
-4.251378e-002 
-4.251532e-002 
-4.229086e-002 
-4.250807e-002 
-4.278109e-002 
-4.255028e-002 
-4.249710e-002 
-4.290781e-002 
-4.293541e-002 
-4.265116e-002 
-4.290297e-002 
-4.324570e-002 
-4.301838e-002 
-4.293836e-002 
-4.337354e-002 
-4.344980e-002 
-4.318054e-002 
-4.339959e-002 
-4.376930e-002 
-4.360546e-002 
-4.351484e-002 
-4.393107e-002 
-4.409426e-002 
-4.386478e-002 
-4.406218e-002 
-4.450589e-002 
-4.444763e-002 
-4.433215e-002 
-4.473188e-002 
-4.494985e-002 
-4.464282e-002 
-4.465761e-002 
-4.498243e-002 
-4.477955e-002 
-4.440225e-002 
-4.460499e-002 
-4.472212e-002 
-4.424445e-002 
-4.408430e-002 
-4.437128e-002 
-4.413616e-002 
-4.367049e-002 
-4.377730e-002 
-4.379893e-002 
-4.330330e-002 
-4.318139e-002 
-4.355777e-002 
-4.367892e-002 
-4.371836e-002 
-4.416753e-002 
-4.453917e-002 
-4.442557e-002 
-4.431578e-002 
-4.448691e-002 
-4.448299e-002 
-4.428608e-002 
-4.431175e-002 
-4.444197e-002 
-4.431372e-002 
-4.414492e-002 
-4.419670e-002 
-4.422740e-002 
-4.406028e-002 
-4.396087e-002 
-4.403038e-002 
-4.400865e-002 
-4.385042e-002 
-4.380809e-002 
-4.386338e-002 
-4.379861e-002 
-4.366326e-002 
-4.364308e-002 
-4.368947e-002 
-4.357376e-002 
-4.345736e-002 
-4.349847e-002 
-4.349500e-002 
-4.333905e-002 
-4.329904e-002 
-4.336873e-002 
-4.326450e-002 
-4.312555e-002 
-4.316613e-002 
-4.316381e-002 
-4.297327e-002 
-4.290399e-002 
-4.295423e-002 
-4.280414e-002 
-4.259886e-002 
-4.261586e-002 
-4.256213e-002 
-4.229829e-002 
-4.217647e-002 
-4.219432e-002 
-4.198219e-002 
-4.172306e-002 
-4.170983e-002 
-4.163651e-002 
-4.132736e-002 
-4.119423e-002 
-4.123159e-002 
-4.103791e-002 
-4.077879e-002 
-4.080833e-002 
-4.080652e-002 
-4.056558e-002 
-4.047862e-002 
-4.061419e-002 
-4.054591e-002 
-4.039681e-002 
-4.052153e-002 
-4.066871e-002 
-4.058987e-002 
-4.063493e-002 
-4.088707e-002 
-4.099900e-002 
-4.101322e-002 
-4.124882e-002 
-4.153185e-002 
-4.164194e-002 
-4.180694e-002 
-4.213837e-002 
-4.238247e-002 
-4.252138e-002 
-4.278988e-002 
-4.309647e-002 
-4.329161e-002 
-4.348779e-002 
-4.378874e-002 
-4.402944e-002 
-4.420982e-002 
-4.444145e-002 
-4.468281e-002 
-4.487174e-002 
-4.506986e-002 
-4.528052e-002 
-4.547139e-002 
-4.565938e-002 
-4.584983e-002 
-4.601116e-002 
-4.620203e-002 
-4.640248e-002 
-4.656240e-002 
-4.672106e-002 
-4.693559e-002 
-4.711967e-002 
-4.727098e-002 
-4.747654e-002 
-4.769007e-002 
-4.769007e-002 
1.110223e-016 
-4.537433e-002 
-4.869165e-002 
-4.614248e-002 
-4.438048e-002 
-4.658190e-002 
-4.747509e-002 
-4.561427e-002 
-4.496991e-002 
-4.681600e-002 
-4.683654e-002 
-4.525718e-002 
-4.571941e-002 
-4.679475e-002 
-4.596339e-002 
-4.543442e-002 
-4.631166e-002 
-4.640813e-002 
-4.541403e-002 
-4.581476e-002 
-4.661910e-002 
-4.572989e-002 
-4.539640e-002 
-4.643511e-002 
-4.608664e-002 
-4.527698e-002 
-4.608909e-002 
-4.641626e-002 
-4.529336e-002 
-4.558879e-002 
-4.657905e-002 
-4.569192e-002 
-4.507229e-002 
-4.633722e-002 
-4.623861e-002 
-4.494749e-002 
-4.569539e-002 
-4.663754e-002 
-4.530710e-002 
-4.497340e-002 
-4.649135e-002 
-4.610374e-002 
-4.457670e-002 
-4.575611e-002 
-4.677705e-002 
-4.495951e-002 
-4.473054e-002 
-4.684198e-002 
-4.582507e-002 
-4.415675e-002 
-4.618939e-002 
-4.660394e-002 
-4.428199e-002 
-4.526359e-002 
-4.678376e-002 
-4.499376e-002 
-4.457391e-002 
-4.624030e-002 
-4.584565e-002 
-4.451090e-002 
-4.523384e-002 
-4.618144e-002 
-4.513605e-002 
-4.453044e-002 
-4.565194e-002 
-4.577836e-002 
-4.449649e-002 
-4.492821e-002 
-4.588094e-002 
-4.485177e-002 
-4.437515e-002 
-4.558227e-002 
-4.525209e-002 
-4.421144e-002 
-4.496044e-002 
-4.535297e-002 
-4.445717e-002 
-4.447025e-002 
-4.504219e-002 
-4.463498e-002 
-4.432513e-002 
-4.467245e-002 
-4.453880e-002 
-4.422557e-002 
-4.449201e-002 
-4.435260e-002 
-4.404470e-002 
-4.429598e-002 
-4.417753e-002 
-4.380889e-002 
-4.405746e-002 
-4.402699e-002 
-4.357013e-002 
-4.376607e-002 
-4.390858e-002 
-4.330688e-002 
-4.319878e-002 
-4.389281e-002 
-4.346705e-002 
-4.242971e-002 
-4.304146e-002 
-4.380426e-002 
-4.273500e-002 
-4.209802e-002 
-4.292677e-002 
-4.305689e-002 
-4.218728e-002 
-4.215147e-002 
-4.246270e-002 
-4.222071e-002 
-4.201997e-002 
-4.210923e-002 
-4.172601e-002 
-4.161535e-002 
-4.198886e-002 
-4.161866e-002 
-4.102709e-002 
-4.147457e-002 
-4.167708e-002 
-4.092226e-002 
-4.057328e-002 
-4.133408e-002 
-4.140672e-002 
-3.983391e-002 
-4.061999e-002 
-4.168434e-002 
-4.006518e-002 
-3.950219e-002 
-4.123078e-002 
-4.098350e-002 
-3.905998e-002 
-4.000045e-002 
-4.126200e-002 
-3.978665e-002 
-3.896010e-002 
-4.058723e-002 
-4.055053e-002 
-3.895876e-002 
-3.953010e-002 
-4.074883e-002 
-3.964135e-002 
-3.897270e-002 
-4.014607e-002 
-4.016068e-002 
-3.899718e-002 
-3.952073e-002 
-4.038086e-002 
-3.954310e-002 
-3.909695e-002 
-4.013475e-002 
-4.009632e-002 
-3.909121e-002 
-3.966634e-002 
-4.043989e-002 
-3.952212e-002 
-3.926866e-002 
-4.038799e-002 
-4.029111e-002 
-3.932989e-002 
-3.980824e-002 
-4.059534e-002 
-4.006224e-002 
-3.977546e-002 
-4.049602e-002 
-4.047795e-002 
-3.984879e-002 
-4.021376e-002 
-4.076721e-002 
-4.023787e-002 
-4.004828e-002 
-4.097876e-002 
-4.106314e-002 
-4.003923e-002 
-4.019867e-002 
-4.126555e-002 
-4.103741e-002 
-4.013876e-002 
-4.054751e-002 