# vtk DataFile Version 2.0
2D-ADE data file 
ASCII
DATASET RECTILINEAR_GRID
DIMENSIONS 512 128 1
X_COORDINATES 512 int
0 1 2 3 4 5 6 7 8 9 10 11 12 13 14 15 16 17 18 19 20 21 22 23 24 25 26 27 28 29 30 31 32 33 34 35 36 37 38 39 40 41 42 43 44 45 46 47 48 49 50 51 52 53 54 55 56 57 58 59 60 61 62 63 64 65 66 67 68 69 70 71 72 73 74 75 76 77 78 79 80 81 82 83 84 85 86 87 88 89 90 91 92 93 94 95 96 97 98 99 100 101 102 103 104 105 106 107 108 109 110 111 112 113 114 115 116 117 118 119 120 121 122 123 124 125 126 127 128 129 130 131 132 133 134 135 136 137 138 139 140 141 142 143 144 145 146 147 148 149 150 151 152 153 154 155 156 157 158 159 160 161 162 163 164 165 166 167 168 169 170 171 172 173 174 175 176 177 178 179 180 181 182 183 184 185 186 187 188 189 190 191 192 193 194 195 196 197 198 199 200 201 202 203 204 205 206 207 208 209 210 211 212 213 214 215 216 217 218 219 220 221 222 223 224 225 226 227 228 229 230 231 232 233 234 235 236 237 238 239 240 241 242 243 244 245 246 247 248 249 250 251 252 253 254 255 256 257 258 259 260 261 262 263 264 265 266 267 268 269 270 271 272 273 274 275 276 277 278 279 280 281 282 283 284 285 286 287 288 289 290 291 292 293 294 295 296 297 298 299 300 301 302 303 304 305 306 307 308 309 310 311 312 313 314 315 316 317 318 319 320 321 322 323 324 325 326 327 328 329 330 331 332 333 334 335 336 337 338 339 340 341 342 343 344 345 346 347 348 349 350 351 352 353 354 355 356 357 358 359 360 361 362 363 364 365 366 367 368 369 370 371 372 373 374 375 376 377 378 379 380 381 382 383 384 385 386 387 388 389 390 391 392 393 394 395 396 397 398 399 400 401 402 403 404 405 406 407 408 409 410 411 412 413 414 415 416 417 418 419 420 421 422 423 424 425 426 427 428 429 430 431 432 433 434 435 436 437 438 439 440 441 442 443 444 445 446 447 448 449 450 451 452 453 454 455 456 457 458 459 460 461 462 463 464 465 466 467 468 469 470 471 472 473 474 475 476 477 478 479 480 481 482 483 484 485 486 487 488 489 490 491 492 493 494 495 496 497 498 499 500 501 502 503 504 505 506 507 508 509 510 511 
Y_COORDINATES 128 int
0 1 2 3 4 5 6 7 8 9 10 11 12 13 14 15 16 17 18 19 20 21 22 23 24 25 26 27 28 29 30 31 32 33 34 35 36 37 38 39 40 41 42 43 44 45 46 47 48 49 50 51 52 53 54 55 56 57 58 59 60 61 62 63 64 65 66 67 68 69 70 71 72 73 74 75 76 77 78 79 80 81 82 83 84 85 86 87 88 89 90 91 92 93 94 95 96 97 98 99 100 101 102 103 104 105 106 107 108 109 110 111 112 113 114 115 116 117 118 119 120 121 122 123 124 125 126 127 
Z_COORDINATES 1 int
0
POINT_DATA 65536 
SCALARS density double 1
LOOKUP_TABLE default
-2.117862e-002 
-3.072105e-002 
-2.720269e-002 
-2.678079e-002 
-2.692520e-002 
-2.680988e-002 
-2.694977e-002 
-2.694393e-002 
-2.687773e-002 
-2.685730e-002 
-2.697261e-002 
-2.688246e-002 
-2.697173e-002 
-2.688744e-002 
-2.696496e-002 
-2.705527e-002 
-2.686827e-002 
-2.694959e-002 
-2.707771e-002 
-2.695590e-002 
-2.696886e-002 
-2.700785e-002 
-2.698500e-002 
-2.698931e-002 
-2.699350e-002 
-2.699765e-002 
-2.702016e-002 
-2.702410e-002 
-2.697168e-002 
-2.700320e-002 
-2.710218e-002 
-2.701009e-002 
-2.692631e-002 
-2.709189e-002 
-2.712170e-002 
-2.692931e-002 
-2.705363e-002 
-2.721461e-002 
-2.699598e-002 
-2.696450e-002 
-2.722773e-002 
-2.709062e-002 
-2.691376e-002 
-2.711853e-002 
-2.721467e-002 
-2.692164e-002 
-2.698529e-002 
-2.725303e-002 
-2.707683e-002 
-2.688002e-002 
-2.723274e-002 
-2.715775e-002 
-2.698605e-002 
-2.723542e-002 
-2.719647e-002 
-2.710967e-002 
-2.722336e-002 
-2.722118e-002 
-2.721841e-002 
-2.728909e-002 
-2.717862e-002 
-2.720330e-002 
-2.730923e-002 
-2.719840e-002 
-2.713141e-002 
-2.724871e-002 
-2.725222e-002 
-2.703918e-002 
-2.721305e-002 
-2.726209e-002 
-2.706081e-002 
-2.708968e-002 
-2.719479e-002 
-2.713355e-002 
-2.707314e-002 
-2.715593e-002 
-2.719287e-002 
-2.713975e-002 
-2.710798e-002 
-2.717120e-002 
-2.720143e-002 
-2.714859e-002 
-2.712479e-002 
-2.716978e-002 
-2.714734e-002 
-2.704809e-002 
-2.708881e-002 
-2.712703e-002 
-2.699374e-002 
-2.691603e-002 
-2.701427e-002 
-2.703440e-002 
-2.687963e-002 
-2.688912e-002 
-2.703633e-002 
-2.687836e-002 
-2.676766e-002 
-2.701220e-002 
-2.702554e-002 
-2.676646e-002 
-2.691037e-002 
-2.712208e-002 
-2.686011e-002 
-2.672722e-002 
-2.699717e-002 
-2.700218e-002 
-2.667937e-002 
-2.673085e-002 
-2.697686e-002 
-2.680430e-002 
-2.664073e-002 
-2.676856e-002 
-2.687573e-002 
-2.666737e-002 
-2.665562e-002 
-2.688759e-002 
-2.671396e-002 
-2.664303e-002 
-2.673591e-002 
-2.676698e-002 
-2.671078e-002 
-2.653165e-002 
-2.687394e-002 
-2.667466e-002 
-2.652190e-002 
-2.679669e-002 
-2.670250e-002 
-2.654161e-002 
-2.662276e-002 
-2.676144e-002 
-2.651651e-002 
-2.649344e-002 
-2.671705e-002 
-2.662855e-002 
-2.635508e-002 
-2.658671e-002 
-2.670300e-002 
-2.634352e-002 
-2.634983e-002 
-2.662838e-002 
-2.648808e-002 
-2.628462e-002 
-2.646295e-002 
-2.655434e-002 
-2.624551e-002 
-2.627319e-002 
-2.653680e-002 
-2.641189e-002 
-2.623626e-002 
-2.638642e-002 
-2.642435e-002 
-2.629174e-002 
-2.629896e-002 
-2.644879e-002 
-2.639248e-002 
-2.626011e-002 
-2.634143e-002 
-2.643862e-002 
-2.638033e-002 
-2.627546e-002 
-2.643634e-002 
-2.647562e-002 
-2.631581e-002 
-2.629255e-002 
-2.648079e-002 
-2.644644e-002 
-2.627245e-002 
-2.642101e-002 
-2.654658e-002 
-2.640258e-002 
-2.638463e-002 
-2.655276e-002 
-2.651543e-002 
-2.641274e-002 
-2.648568e-002 
-2.662653e-002 
-2.651931e-002 
-2.636545e-002 
-2.654946e-002 
-2.661274e-002 
-2.645801e-002 
-2.644906e-002 
-2.660568e-002 
-2.652436e-002 
-2.643433e-002 
-2.655562e-002 
-2.667220e-002 
-2.651672e-002 
-2.643142e-002 
-2.662965e-002 
-2.666364e-002 
-2.648043e-002 
-2.655361e-002 
-2.673612e-002 
-2.657640e-002 
-2.646508e-002 
-2.663328e-002 
-2.668834e-002 
-2.648548e-002 
-2.650342e-002 
-2.668356e-002 
-2.661834e-002 
-2.648505e-002 
-2.659626e-002 
-2.667428e-002 
-2.649003e-002 
-2.651310e-002 
-2.665737e-002 
-2.664283e-002 
-2.651964e-002 
-2.655874e-002 
-2.667332e-002 
-2.660275e-002 
-2.653172e-002 
-2.662416e-002 
-2.664337e-002 
-2.653662e-002 
-2.659502e-002 
-2.669061e-002 
-2.659716e-002 
-2.647200e-002 
-2.662247e-002 
-2.665362e-002 
-2.643777e-002 
-2.652344e-002 
-2.662454e-002 
-2.650410e-002 
-2.644120e-002 
-2.650765e-002 
-2.659080e-002 
-2.650306e-002 
-2.644318e-002 
-2.656593e-002 
-2.656272e-002 
-2.642733e-002 
-2.649595e-002 
-2.660749e-002 
-2.652135e-002 
-2.643457e-002 
-2.652605e-002 
-2.657808e-002 
-2.648037e-002 
-2.645745e-002 
-2.656602e-002 
-2.650051e-002 
-2.648711e-002 
-2.650622e-002 
-2.649464e-002 
-2.646465e-002 
-2.643068e-002 
-2.653904e-002 
-2.651299e-002 
-2.642165e-002 
-2.644148e-002 
-2.650675e-002 
-2.644200e-002 
-2.642151e-002 
-2.651344e-002 
-2.645677e-002 
-2.641770e-002 
-2.645287e-002 
-2.651979e-002 
-2.639152e-002 
-2.628569e-002 
-2.643349e-002 
-2.643352e-002 
-2.635419e-002 
-2.638452e-002 
-2.642568e-002 
-2.635362e-002 
-2.630848e-002 
-2.644051e-002 
-2.649224e-002 
-2.636364e-002 
-2.638469e-002 
-2.642690e-002 
-2.639345e-002 
-2.635742e-002 
-2.646547e-002 
-2.652159e-002 
-2.644117e-002 
-2.639325e-002 
-2.653616e-002 
-2.654238e-002 
-2.640062e-002 
-2.647196e-002 
-2.656349e-002 
-2.650389e-002 
-2.648320e-002 
-2.652329e-002 
-2.650441e-002 
-2.645096e-002 
-2.652953e-002 
-2.656979e-002 
-2.649301e-002 
-2.651669e-002 
-2.653984e-002 
-2.655800e-002 
-2.655101e-002 
-2.654028e-002 
-2.658974e-002 
-2.652951e-002 
-2.652201e-002 
-2.655889e-002 
-2.661063e-002 
-2.654217e-002 
-2.659243e-002 
-2.663168e-002 
-2.655216e-002 
-2.656290e-002 
-2.661761e-002 
-2.661814e-002 
-2.656430e-002 
-2.656636e-002 
-2.656891e-002 
-2.662420e-002 
-2.651753e-002 
-2.651189e-002 
-2.659638e-002 
-2.653834e-002 
-2.649656e-002 
-2.658501e-002 
-2.668672e-002 
-2.658273e-002 
-2.657034e-002 
-2.657601e-002 
-2.665584e-002 
-2.663646e-002 
-2.657549e-002 
-2.669556e-002 
-2.669819e-002 
-2.662028e-002 
-2.665709e-002 
-2.667039e-002 
-2.663109e-002 
-2.664099e-002 
-2.667018e-002 
-2.670381e-002 
-2.666878e-002 
-2.656705e-002 
-2.654478e-002 
-2.658618e-002 
-2.665324e-002 
-2.667639e-002 
-2.661025e-002 
-2.658870e-002 
-2.657012e-002 
-2.658980e-002 
-2.658436e-002 
-2.661016e-002 
-2.662728e-002 
-2.660696e-002 
-2.662441e-002 
-2.667498e-002 
-2.669168e-002 
-2.672936e-002 
-2.673721e-002 
-2.672589e-002 
-2.673538e-002 
-2.674010e-002 
-2.681372e-002 
-2.676267e-002 
-2.672714e-002 
-2.680768e-002 
-2.682160e-002 
-2.673786e-002 
-2.674942e-002 
-2.678227e-002 
-2.675529e-002 
-2.675683e-002 
-2.675590e-002 
-2.677297e-002 
-2.668497e-002 
-2.661747e-002 
-2.667579e-002 
-2.668473e-002 
-2.661164e-002 
-2.661157e-002 
-2.670073e-002 
-2.666279e-002 
-2.662424e-002 
-2.668614e-002 
-2.666313e-002 
-2.659287e-002 
-2.667599e-002 
-2.678993e-002 
-2.673394e-002 
-2.666324e-002 
-2.667942e-002 
-2.674392e-002 
-2.669956e-002 
-2.668383e-002 
-2.671130e-002 
-2.668038e-002 
-2.663222e-002 
-2.663633e-002 
-2.670546e-002 
-2.662721e-002 
-2.653194e-002 
-2.668566e-002 
-2.670498e-002 
-2.666615e-002 
-2.670802e-002 
-2.668705e-002 
-2.672573e-002 
-2.672489e-002 
-2.677325e-002 
-2.682543e-002 
-2.679826e-002 
-2.673960e-002 
-2.675541e-002 
-2.674619e-002 
-2.667667e-002 
-2.671536e-002 
-2.680199e-002 
-2.677111e-002 
-2.673797e-002 
-2.678623e-002 
-2.678461e-002 
-2.676426e-002 
-2.679760e-002 
-2.688975e-002 
-2.684710e-002 
-2.681300e-002 
-2.681724e-002 
-2.679548e-002 
-2.678375e-002 
-2.680560e-002 
-2.680851e-002 
-2.677940e-002 
-2.674373e-002 
-2.671576e-002 
-2.680411e-002 
-2.679503e-002 
-2.685002e-002 
-2.691819e-002 
-2.684593e-002 
-2.686104e-002 
-2.693487e-002 
-2.698466e-002 
-2.686980e-002 
-2.683850e-002 
-2.691580e-002 
-2.690140e-002 
-2.685679e-002 
-2.687244e-002 
-2.697032e-002 
-2.692252e-002 
-2.686036e-002 
-2.692259e-002 
-2.696264e-002 
-2.690011e-002 
-2.691901e-002 
-2.694774e-002 
-2.687647e-002 
-2.679023e-002 
-2.680991e-002 
-2.685147e-002 
-2.675532e-002 
-2.669744e-002 
-2.673261e-002 
-2.678938e-002 
-2.681756e-002 
-2.680984e-002 
-2.684954e-002 
-2.683577e-002 
-2.688647e-002 
-2.695185e-002 
-2.692301e-002 
-2.687494e-002 
-2.687623e-002 
-2.690751e-002 
-2.683898e-002 
-2.682913e-002 
-2.690695e-002 
-2.684007e-002 
-2.683686e-002 
-2.691129e-002 
-2.692796e-002 
-2.694311e-002 
-2.696481e-002 
-2.706216e-002 
-2.702806e-002 
-2.696529e-002 
-2.697319e-002 
-2.709656e-002 
-2.706536e-002 
-2.697096e-002 
-2.700196e-002 
-2.698327e-002 
-2.699598e-002 
-2.704976e-002 
-2.706757e-002 
-2.704924e-002 
-2.698242e-002 
-2.707354e-002 
-2.716969e-002 
-2.713541e-002 
-2.707127e-002 
-2.710229e-002 
-2.714509e-002 
-2.709653e-002 
-2.705592e-002 
-2.702223e-002 
-2.698155e-002 
-2.692368e-002 
-2.694659e-002 
-2.698523e-002 
-2.698321e-002 
-2.699095e-002 
-2.703592e-002 
-2.120113e-002 
1.110223e-016 
-4.581514e-002 
-3.952771e-002 
-4.254014e-002 
-4.608264e-002 
-4.377058e-002 
-4.194268e-002 
-4.394675e-002 
-4.500324e-002 
-4.288485e-002 
-4.272119e-002 
-4.480391e-002 
-4.426993e-002 
-4.278583e-002 
-4.398654e-002 
-4.492434e-002 
-4.363401e-002 
-4.323160e-002 
-4.483351e-002 
-4.466408e-002 
-4.328924e-002 
-4.411753e-002 
-4.490858e-002 
-4.381734e-002 
-4.378639e-002 
-4.479145e-002 
-4.430687e-002 
-4.366735e-002 
-4.460705e-002 
-4.478262e-002 
-4.385187e-002 
-4.419135e-002 
-4.484610e-002 
-4.419638e-002 
-4.418749e-002 
-4.497778e-002 
-4.449176e-002 
-4.409491e-002 
-4.500899e-002 
-4.513937e-002 
-4.408254e-002 
-4.438280e-002 
-4.532611e-002 
-4.460031e-002 
-4.386766e-002 
-4.501176e-002 
-4.513090e-002 
-4.391770e-002 
-4.460311e-002 
-4.561983e-002 
-4.416783e-002 
-4.420906e-002 
-4.607659e-002 
-4.509108e-002 
-4.425172e-002 
-4.576937e-002 
-4.605184e-002 
-4.481801e-002 
-4.531445e-002 
-4.638147e-002 
-4.564700e-002 
-4.483846e-002 
-4.583614e-002 
-4.620496e-002 
-4.494216e-002 
-4.506940e-002 
-4.594672e-002 
-4.520397e-002 
-4.459976e-002 
-4.574129e-002 
-4.550800e-002 
-4.423977e-002 
-4.504495e-002 
-4.563161e-002 
-4.462734e-002 
-4.462805e-002 
-4.568398e-002 
-4.516265e-002 
-4.474454e-002 
-4.530804e-002 
-4.539545e-002 
-4.508147e-002 
-4.510528e-002 
-4.517257e-002 
-4.492802e-002 
-4.476347e-002 
-4.480399e-002 
-4.465580e-002 
-4.439423e-002 
-4.416512e-002 
-4.389011e-002 
-4.408442e-002 
-4.411237e-002 
-4.359478e-002 
-4.368105e-002 
-4.422058e-002 
-4.353096e-002 
-4.274984e-002 
-4.380004e-002 
-4.477374e-002 
-4.384719e-002 
-4.311449e-002 
-4.367343e-002 
-4.394019e-002 
-4.361566e-002 
-4.344643e-002 
-4.284162e-002 
-4.283184e-002 
-4.367023e-002 
-4.345420e-002 
-4.212731e-002 
-4.223979e-002 
-4.343913e-002 
-4.301458e-002 
-4.204080e-002 
-4.277647e-002 
-4.332140e-002 
-4.197638e-002 
-4.197815e-002 
-4.321261e-002 
-4.293789e-002 
-4.144503e-002 
-4.203026e-002 
-4.361288e-002 
-4.192299e-002 
-4.107929e-002 
-4.305362e-002 
-4.298893e-002 
-4.080655e-002 
-4.137715e-002 
-4.311523e-002 
-4.181069e-002 
-4.049019e-002 
-4.197590e-002 
-4.245071e-002 
-4.073187e-002 
-4.081880e-002 
-4.195423e-002 
-4.111743e-002 
-4.005820e-002 
-4.114276e-002 
-4.160757e-002 
-4.034877e-002 
-4.022215e-002 
-4.082868e-002 
-4.044732e-002 
-4.026565e-002 
-4.075199e-002 
-4.061089e-002 
-4.005688e-002 
-4.006638e-002 
-4.050347e-002 
-4.049927e-002 
-4.034238e-002 
-4.029714e-002 
-4.031358e-002 
-4.039934e-002 
-4.033786e-002 
-4.042118e-002 
-4.056038e-002 
-4.057837e-002 
-4.050858e-002 
-4.059958e-002 
-4.050513e-002 
-4.038409e-002 
-4.054850e-002 
-4.068254e-002 
-4.069975e-002 
-4.078997e-002 
-4.093252e-002 
-4.108340e-002 
-4.107107e-002 
-4.103970e-002 
-4.130241e-002 
-4.133106e-002 
-4.130432e-002 
-4.120771e-002 
-4.117149e-002 
-4.134941e-002 
-4.139992e-002 
-4.127020e-002 
-4.128883e-002 
-4.137300e-002 
-4.131816e-002 
-4.120271e-002 
-4.150620e-002 
-4.174450e-002 
-4.161113e-002 
-4.136093e-002 
-4.145697e-002 
-4.181680e-002 
-4.172287e-002 
-4.160981e-002 
-4.194363e-002 
-4.190379e-002 
-4.152491e-002 
-4.162468e-002 
-4.184747e-002 
-4.169521e-002 
-4.147533e-002 
-4.169036e-002 
-4.188897e-002 
-4.163326e-002 
-4.161865e-002 
-4.183713e-002 
-4.150968e-002 
-4.143396e-002 
-4.188094e-002 
-4.198922e-002 
-4.158586e-002 
-4.160696e-002 
-4.203356e-002 
-4.189465e-002 
-4.143469e-002 
-4.186137e-002 
-4.218834e-002 
-4.169521e-002 
-4.147220e-002 
-4.213148e-002 
-4.211069e-002 
-4.130568e-002 
-4.139104e-002 
-4.208316e-002 
-4.162562e-002 
-4.107626e-002 
-4.131566e-002 
-4.169559e-002 
-4.120901e-002 
-4.085804e-002 
-4.147993e-002 
-4.174421e-002 
-4.101770e-002 
-4.103936e-002 
-4.166429e-002 
-4.134932e-002 
-4.094917e-002 
-4.141254e-002 
-4.174620e-002 
-4.120944e-002 
-4.093831e-002 
-4.148634e-002 
-4.148349e-002 
-4.103092e-002 
-4.116743e-002 
-4.157140e-002 
-4.137910e-002 
-4.095744e-002 
-4.118645e-002 
-4.124245e-002 
-4.094227e-002 
-4.106379e-002 
-4.150953e-002 
-4.109028e-002 
-4.061525e-002 
-4.097898e-002 
-4.129026e-002 
-4.087672e-002 
-4.084306e-002 
-4.126077e-002 
-4.111660e-002 
-4.074317e-002 
-4.088415e-002 
-4.093280e-002 
-4.033806e-002 
-4.037535e-002 
-4.080318e-002 
-4.079885e-002 
-4.037314e-002 
-4.040085e-002 
-4.072570e-002 
-4.049304e-002 
-4.047039e-002 
-4.089829e-002 
-4.090789e-002 
-4.050584e-002 
-4.047301e-002 
-4.076734e-002 
-4.072958e-002 
-4.075908e-002 
-4.110526e-002 
-4.099107e-002 
-4.094525e-002 
-4.122556e-002 
-4.120981e-002 
-4.104586e-002 
-4.117144e-002 
-4.135059e-002 
-4.131688e-002 
-4.109577e-002 
-4.135079e-002 
-4.147581e-002 
-4.102672e-002 
-4.107954e-002 
-4.174163e-002 
-4.159618e-002 
-4.100533e-002 
-4.135153e-002 
-4.195932e-002 
-4.165757e-002 
-4.114883e-002 
-4.153501e-002 
-4.189705e-002 
-4.135561e-002 
-4.118566e-002 
-4.182247e-002 
-4.200242e-002 
-4.151635e-002 
-4.145520e-002 
-4.197688e-002 
-4.182147e-002 
-4.142919e-002 
-4.186310e-002 
-4.212848e-002 
-4.144200e-002 
-4.123792e-002 
-4.199742e-002 
-4.185371e-002 
-4.104863e-002 
-4.136151e-002 
-4.183760e-002 
-4.148746e-002 
-4.136496e-002 
-4.196686e-002 
-4.233895e-002 
-4.176241e-002 
-4.137524e-002 
-4.205749e-002 
-4.238641e-002 
-4.179362e-002 
-4.193626e-002 
-4.251392e-002 
-4.222439e-002 
-4.195154e-002 
-4.208964e-002 
-4.237307e-002 
-4.212161e-002 
-4.203213e-002 
-4.238200e-002 
-4.227886e-002 
-4.163307e-002 
-4.166199e-002 
-4.196298e-002 
-4.185917e-002 
-4.196120e-002 
-4.220221e-002 
-4.192532e-002 
-4.145153e-002 
-4.171537e-002 
-4.206702e-002 
-4.175974e-002 
-4.159844e-002 
-4.210854e-002 
-4.233000e-002 
-4.205202e-002 
-4.210777e-002 
-4.270939e-002 
-4.274420e-002 
-4.240342e-002 
-4.258619e-002 
-4.286108e-002 
-4.282703e-002 
-4.271847e-002 
-4.288680e-002 
-4.299683e-002 
-4.286051e-002 
-4.275756e-002 
-4.289969e-002 
-4.275183e-002 
-4.268029e-002 
-4.285324e-002 
-4.287829e-002 
-4.250321e-002 
-4.223788e-002 
-4.224772e-002 
-4.221564e-002 
-4.215993e-002 
-4.205888e-002 
-4.201770e-002 
-4.217955e-002 
-4.229186e-002 
-4.220164e-002 
-4.222592e-002 
-4.203722e-002 
-4.207901e-002 
-4.247016e-002 
-4.253402e-002 
-4.243325e-002 
-4.250909e-002 
-4.228895e-002 
-4.243338e-002 
-4.252659e-002 
-4.234642e-002 
-4.224637e-002 
-4.235131e-002 
-4.215117e-002 
-4.211626e-002 
-4.214066e-002 
-4.199048e-002 
-4.192881e-002 
-4.211158e-002 
-4.223396e-002 
-4.235499e-002 
-4.236236e-002 
-4.228032e-002 
-4.257360e-002 
-4.275666e-002 
-4.285857e-002 
-4.300466e-002 
-4.290887e-002 
-4.272255e-002 
-4.273369e-002 
-4.269651e-002 
-4.244897e-002 
-4.234151e-002 
-4.283393e-002 
-4.303034e-002 
-4.270395e-002 
-4.270881e-002 
-4.291103e-002 
-4.302352e-002 
-4.313473e-002 
-4.319841e-002 
-4.327075e-002 
-4.332090e-002 
-4.304386e-002 
-4.295029e-002 
-4.301487e-002 
-4.296198e-002 
-4.285528e-002 
-4.292289e-002 
-4.265872e-002 
-4.260960e-002 
-4.284446e-002 
-4.320195e-002 
-4.340304e-002 
-4.331298e-002 
-4.349267e-002 
-4.373680e-002 
-4.377392e-002 
-4.373119e-002 
-4.370301e-002 
-4.347835e-002 
-4.337480e-002 
-4.337973e-002 
-4.359847e-002 
-4.368879e-002 
-4.342758e-002 
-4.356191e-002 
-4.386799e-002 
-4.374204e-002 
-4.351479e-002 
-4.367838e-002 
-4.406425e-002 
-4.384662e-002 
-4.325068e-002 
-4.313002e-002 
-4.333122e-002 
-4.306660e-002 
-4.258108e-002 
-4.263649e-002 
-4.290938e-002 
-4.278826e-002 
-4.280318e-002 
-4.332018e-002 
-4.346413e-002 
-4.318860e-002 
-4.348683e-002 
-4.405846e-002 
-4.391102e-002 
-4.326769e-002 
-4.336070e-002 
-4.388525e-002 
-4.347989e-002 
-4.292864e-002 
-4.326601e-002 
-4.365046e-002 
-4.329550e-002 
-4.336673e-002 
-4.392343e-002 
-4.406041e-002 
-4.393733e-002 
-4.429256e-002 
-4.462914e-002 
-4.430410e-002 
-4.395700e-002 
-4.444498e-002 
-4.481942e-002 
-4.418591e-002 
-4.381482e-002 
-4.422503e-002 
-4.450948e-002 
-4.426845e-002 
-4.424537e-002 
-4.454226e-002 
-4.463213e-002 
-4.447841e-002 
-4.494128e-002 
-4.521801e-002 
-4.485686e-002 
-4.472270e-002 
-4.505223e-002 
-4.504468e-002 
-4.443037e-002 
-4.418018e-002 
-4.417277e-002 
-4.394741e-002 
-4.374455e-002 
-4.396418e-002 
-4.419193e-002 
-4.416315e-002 
-4.439482e-002 
-4.439482e-002 
1.110223e-016 
-4.500532e-002 
-4.416799e-002 
-4.327267e-002 
-4.269994e-002 
-4.414785e-002 
-4.423744e-002 
-4.325068e-002 
-4.342788e-002 
-4.439744e-002 
-4.384934e-002 
-4.314704e-002 
-4.374353e-002 
-4.479706e-002 
-4.373109e-002 
-4.297760e-002 
-4.458368e-002 
-4.458849e-002 
-4.336808e-002 
-4.405397e-002 
-4.475593e-002 
-4.387586e-002 
-4.375667e-002 
-4.458407e-002 
-4.457601e-002 
-4.415893e-002 
-4.417441e-002 
-4.431715e-002 
-4.441644e-002 
-4.430797e-002 
-4.420551e-002 
-4.448137e-002 
-4.469434e-002 
-4.407212e-002 
-4.417720e-002 
-4.491782e-002 
-4.443354e-002 
-4.400776e-002 
-4.492481e-002 
-4.494368e-002 
-4.390186e-002 
-4.449960e-002 
-4.531942e-002 
-4.440336e-002 
-4.413849e-002 
-4.521928e-002 
-4.474457e-002 
-4.410825e-002 
-4.485684e-002 
-4.503901e-002 
-4.446630e-002 
-4.512737e-002 
-4.531385e-002 
-4.489075e-002 
-4.542543e-002 
-4.514392e-002 
-4.497827e-002 
-4.582612e-002 
-4.565636e-002 
-4.509655e-002 
-4.572074e-002 
-4.585425e-002 
-4.506135e-002 
-4.544820e-002 
-4.622576e-002 
-4.521080e-002 
-4.471838e-002 
-4.622742e-002 
-4.563218e-002 
-4.440726e-002 
-4.528148e-002 
-4.562896e-002 
-4.467914e-002 
-4.477481e-002 
-4.559461e-002 
-4.531590e-002 
-4.472514e-002 
-4.500035e-002 
-4.547678e-002 
-4.486319e-002 
-4.483062e-002 
-4.557017e-002 
-4.538138e-002 
-4.472147e-002 
-4.474874e-002 
-4.519066e-002 
-4.503367e-002 
-4.433748e-002 
-4.447804e-002 
-4.484988e-002 
-4.412005e-002 
-4.362251e-002 
-4.422426e-002 
-4.410981e-002 
-4.329268e-002 
-4.369967e-002 
-4.432956e-002 
-4.331225e-002 
-4.316473e-002 
-4.448650e-002 
-4.392819e-002 
-4.262088e-002 
-4.382411e-002 
-4.480986e-002 
-4.286286e-002 
-4.226296e-002 
-4.406145e-002 
-4.381045e-002 
-4.214223e-002 
-4.267972e-002 
-4.385744e-002 
-4.271686e-002 
-4.183932e-002 
-4.319787e-002 
-4.358675e-002 
-4.208121e-002 
-4.240163e-002 
-4.330497e-002 
-4.287653e-002 
-4.173816e-002 
-4.240285e-002 
-4.351462e-002 
-4.156436e-002 
-4.187672e-002 
-4.306287e-002 
-4.195068e-002 
-4.153340e-002 
-4.238247e-002 
-4.217879e-002 
-4.104376e-002 
-4.185036e-002 
-4.236446e-002 
-4.108336e-002 
-4.105103e-002 
-4.209861e-002 
-4.131025e-002 
-4.042191e-002 
-4.143687e-002 
-4.173402e-002 
-4.010768e-002 
-4.048998e-002 
-4.177968e-002 
-4.054453e-002 
-3.946418e-002 
-4.077553e-002 
-4.116525e-002 
-4.001959e-002 
-4.041666e-002 
-4.115564e-002 
-4.014088e-002 
-3.936286e-002 
-4.057150e-002 
-4.102108e-002 
-4.003783e-002 
-4.005473e-002 
-4.080430e-002 
-4.049709e-002 
-3.995237e-002 
-4.057358e-002 
-4.114129e-002 
-4.034862e-002 
-4.000935e-002 
-4.081644e-002 
-4.084512e-002 
-4.009476e-002 
-4.051789e-002 
-4.141116e-002 
-4.062259e-002 
-4.015945e-002 
-4.115360e-002 
-4.162251e-002 
-4.076312e-002 
-4.063988e-002 
-4.180218e-002 
-4.163660e-002 
-4.091036e-002 
-4.146315e-002 
-4.175037e-002 
-4.087564e-002 
-4.075070e-002 
-4.187850e-002 
-4.183374e-002 
-4.080952e-002 
-4.114310e-002 
-4.197826e-002 
-4.156713e-002 
-4.088085e-002 
-4.175060e-002 
-4.201372e-002 
-4.104883e-002 
-4.137779e-002 
-4.250766e-002 
-4.185646e-002 
-4.069524e-002 
-4.159633e-002 
-4.243841e-002 
-4.152899e-002 
-4.105503e-002 
-4.207121e-002 
-4.198590e-002 
-4.081948e-002 
-4.130198e-002 
-4.244134e-002 
-4.168475e-002 
-4.079041e-002 
-4.170032e-002 
-4.231842e-002 
-4.134752e-002 
-4.139828e-002 
-4.232248e-002 
-4.183179e-002 
-4.110201e-002 
-4.188284e-002 
-4.253180e-002 
-4.148724e-002 
-4.111540e-002 
-4.215114e-002 
-4.221364e-002 
-4.134293e-002 
-4.171542e-002 
-4.226060e-002 
-4.140643e-002 
-4.085498e-002 
-4.176479e-002 
-4.202903e-002 
-4.091471e-002 
-4.122490e-002 
-4.194150e-002 
-4.124171e-002 
-4.051152e-002 
-4.142692e-002 
-4.202224e-002 
-4.098273e-002 
-4.080160e-002 
-4.187745e-002 
-4.174733e-002 
-4.066599e-002 
-4.114120e-002 
-4.190310e-002 
-4.130003e-002 
-4.082874e-002 
-4.157069e-002 
-4.185539e-002 
-4.102479e-002 
-4.102669e-002 
-4.169079e-002 
-4.137096e-002 
-4.107977e-002 
-4.134905e-002 
-4.152055e-002 
-4.101183e-002 
-4.110654e-002 
-4.144649e-002 
-4.101421e-002 
-4.089626e-002 
-4.155013e-002 
-4.153071e-002 
-4.068854e-002 
-4.065039e-002 
-4.136814e-002 
-4.124312e-002 
-4.080572e-002 
-4.106707e-002 
-4.098015e-002 
-4.059379e-002 
-4.069674e-002 
-4.115478e-002 
-4.087756e-002 
-4.032831e-002 
-4.072822e-002 
-4.108865e-002 
-4.067618e-002 
-4.053834e-002 
-4.106365e-002 
-4.105545e-002 
-4.038544e-002 
-4.064558e-002 
-4.119794e-002 
-4.105317e-002 
-4.080432e-002 
-4.131871e-002 
-4.143925e-002 
-4.093270e-002 
-4.090533e-002 
-4.154201e-002 
-4.144153e-002 
-4.108460e-002 
-4.146969e-002 
-4.182619e-002 
-4.123279e-002 
-4.101162e-002 
-4.160775e-002 
-4.180850e-002 
-4.147021e-002 
-4.146497e-002 
-4.188543e-002 
-4.162325e-002 
-4.140566e-002 
-4.172317e-002 
-4.179272e-002 
-4.143918e-002 
-4.142601e-002 
-4.186636e-002 
-4.157933e-002 
-4.130534e-002 
-4.156859e-002 
-4.161792e-002 
-4.145599e-002 
-4.141540e-002 
-4.184021e-002 
-4.171438e-002 
-4.112501e-002 
-4.147084e-002 
-4.200611e-002 
-4.155733e-002 
-4.120034e-002 
-4.166286e-002 
-4.185032e-002 
-4.126626e-002 
-4.141141e-002 
-4.214739e-002 
-4.212859e-002 
-4.156838e-002 
-4.177326e-002 
-4.228696e-002 
-4.187011e-002 
-4.168348e-002 
-4.219068e-002 
-4.245522e-002 
-4.202326e-002 
-4.191798e-002 
-4.249300e-002 
-4.263609e-002 
-4.188308e-002 
-4.175738e-002 
-4.223119e-002 
-4.253956e-002 
-4.249314e-002 
-4.219896e-002 
-4.189233e-002 
-4.174667e-002 
-4.199414e-002 
-4.209585e-002 
-4.210618e-002 
-4.191872e-002 
-4.158952e-002 
-4.160511e-002 
-4.186997e-002 
-4.212261e-002 
-4.218424e-002 
-4.225189e-002 
-4.211700e-002 
-4.205780e-002 
-4.218014e-002 
-4.230587e-002 
-4.238411e-002 
-4.215767e-002 
-4.229863e-002 
-4.249885e-002 
-4.250082e-002 
-4.251006e-002 
-4.287065e-002 
-4.299911e-002 
-4.263578e-002 
-4.279686e-002 
-4.307197e-002 
-4.281199e-002 
-4.224062e-002 
-4.252849e-002 
-4.289350e-002 
-4.245087e-002 
-4.223241e-002 
-4.232632e-002 
-4.234606e-002 
-4.191147e-002 
-4.212797e-002 
-4.244656e-002 
-4.226344e-002 
-4.214201e-002 
-4.267546e-002 
-4.297735e-002 
-4.218284e-002 
-4.188617e-002 
-4.251077e-002 
-4.260322e-002 
-4.213391e-002 
-4.227681e-002 
-4.243062e-002 
-4.205585e-002 
-4.175934e-002 
-4.212211e-002 
-4.230569e-002 
-4.197459e-002 
-4.223820e-002 
-4.272078e-002 
-4.235700e-002 
-4.184170e-002 
-4.210912e-002 
-4.243606e-002 
-4.214599e-002 
-4.220387e-002 
-4.274146e-002 
-4.253658e-002 
-4.199640e-002 
-4.213456e-002 
-4.258430e-002 
-4.267709e-002 
-4.254316e-002 
-4.297433e-002 
-4.286654e-002 
-4.251348e-002 
-4.262847e-002 
-4.275785e-002 
-4.270634e-002 
-4.245737e-002 
-4.281007e-002 
-4.300114e-002 
-4.265330e-002 
-4.266373e-002 
-4.319795e-002 
-4.316334e-002 
-4.307482e-002 
-4.319656e-002 
-4.322121e-002 
-4.285345e-002 
-4.274364e-002 
-4.285087e-002 
-4.281738e-002 
-4.280965e-002 
-4.270057e-002 
-4.270111e-002 
-4.252227e-002 
-4.284307e-002 
-4.353675e-002 
-4.361992e-002 
-4.343635e-002 
-4.360828e-002 
-4.391334e-002 
-4.371419e-002 
-4.359860e-002 
-4.392422e-002 
-4.359758e-002 
-4.299071e-002 
-4.309505e-002 
-4.347691e-002 
-4.301653e-002 
-4.288623e-002 
-4.342230e-002 
-4.379271e-002 
-4.338562e-002 
-4.318674e-002 
-4.386156e-002 
-4.396749e-002 
-4.346977e-002 
-4.335295e-002 
-4.372361e-002 
-4.335856e-002 
-4.298106e-002 
-4.305550e-002 
-4.303556e-002 
-4.282847e-002 
-4.305848e-002 
-4.348545e-002 
-4.326707e-002 
-4.308386e-002 
-4.345811e-002 
-4.391267e-002 
-4.384411e-002 
-4.367894e-002 
-4.371752e-002 
-4.351226e-002 
-4.340406e-002 
-4.364469e-002 
-4.359172e-002 
-4.328481e-002 
-4.326824e-002 
-4.362304e-002 
-4.347434e-002 
-4.338133e-002 
-4.399203e-002 
-4.439347e-002 
-4.425817e-002 
-4.418252e-002 
-4.442929e-002 
-4.437034e-002 
-4.415563e-002 
-4.440547e-002 
-4.464545e-002 
-4.388089e-002 
-4.348992e-002 
-4.416454e-002 
-4.461799e-002 
-4.418815e-002 
-4.406068e-002 
-4.462972e-002 
-4.499468e-002 
-4.480536e-002 
-4.491915e-002 
-4.521647e-002 
-4.489858e-002 
-4.472875e-002 
-4.485455e-002 
-4.489225e-002 
-4.431713e-002 
-4.394422e-002 
-4.409665e-002 
-4.412917e-002 
-4.402904e-002 
-4.406956e-002 
-4.432235e-002 
-4.440344e-002 
-4.440344e-002 
1.110223e-016 
-4.277802e-002 
-4.602206e-002 
-4.382823e-002 
-4.203857e-002 
-4.392602e-002 
-4.505294e-002 
-4.340203e-002 
-4.267867e-002 
-4.448041e-002 
-4.462278e-002 
-4.302833e-002 
-4.352410e-002 
-4.477704e-002 
-4.393864e-002 
-4.324150e-002 
-4.419902e-002 
-4.453833e-002 
-4.355742e-002 
-4.381355e-002 
-4.475101e-002 
-4.408226e-002 
-4.363512e-002 
-4.472738e-002 
-4.483242e-002 
-4.397183e-002 
-4.441835e-002 
-4.485849e-002 
-4.379892e-002 
-4.422920e-002 
-4.525571e-002 
-4.433672e-002 
-4.379587e-002 
-4.494831e-002 
-4.486009e-002 
-4.373265e-002 
-4.444811e-002 
-4.516775e-002 
-4.411389e-002 
-4.400593e-002 
-4.523716e-002 
-4.488165e-002 
-4.372327e-002 
-4.485322e-002 
-4.558959e-002 
-4.404741e-002 
-4.396547e-002 
-4.576564e-002 
-4.494261e-002 
-4.353572e-002 
-4.543302e-002 
-4.592798e-002 
-4.400634e-002 
-4.496102e-002 
-4.623229e-002 
-4.461470e-002 
-4.441838e-002 
-4.612862e-002 
-4.586602e-002 
-4.459768e-002 
-4.511414e-002 
-4.617185e-002 
-4.554484e-002 
-4.498924e-002 
-4.587203e-002 
-4.591513e-002 
-4.479469e-002 
-4.531105e-002 
-4.612463e-002 
-4.496722e-002 
-4.464703e-002 
-4.564422e-002 
-4.519589e-002 
-4.458566e-002 
-4.522096e-002 
-4.531127e-002 
-4.482545e-002 
-4.501606e-002 
-4.526756e-002 
-4.497615e-002 
-4.518797e-002 
-4.539628e-002 
-4.494271e-002 
-4.493069e-002 
-4.511234e-002 
-4.477482e-002 
-4.496733e-002 
-4.505826e-002 
-4.443257e-002 
-4.428631e-002 
-4.463058e-002 
-4.431835e-002 
-4.358784e-002 
-4.394133e-002 
-4.427478e-002 
-4.335054e-002 
-4.350454e-002 
-4.450957e-002 
-4.363277e-002 
-4.264470e-002 
-4.400214e-002 
-4.452623e-002 
-4.316250e-002 
-4.292642e-002 
-4.374324e-002 
-4.357950e-002 
-4.285065e-002 
-4.306407e-002 
-4.317587e-002 
-4.281542e-002 
-4.307299e-002 
-4.307819e-002 
-4.254897e-002 
-4.253734e-002 
-4.322132e-002 
-4.303728e-002 
-4.229894e-002 
-4.294400e-002 
-4.319106e-002 
-4.216551e-002 
-4.190290e-002 
-4.284766e-002 
-4.275921e-002 
-4.125694e-002 
-4.227957e-002 
-4.311444e-002 
-4.132444e-002 
-4.100297e-002 
-4.277068e-002 
-4.211457e-002 
-4.037723e-002 
-4.153244e-002 
-4.266483e-002 
-4.097724e-002 
-4.029783e-002 
-4.199296e-002 
-4.171544e-002 
-4.005882e-002 
-4.085473e-002 
-4.185764e-002 
-4.058966e-002 
-3.996249e-002 
-4.089820e-002 
-4.083113e-002 
-3.986818e-002 
-4.045323e-002 
-4.125248e-002 
-4.067849e-002 
-3.978978e-002 
-4.035271e-002 
-4.048687e-002 
-3.986542e-002 
-4.033323e-002 
-4.096903e-002 
-4.040774e-002 
-3.990117e-002 
-4.030601e-002 
-4.085759e-002 
-4.069848e-002 
-4.013114e-002 
-4.074321e-002 
-4.095872e-002 
-4.021754e-002 
-4.030563e-002 
-4.112206e-002 
-4.095034e-002 
-4.038684e-002 
-4.044547e-002 
-4.095671e-002 
-4.104861e-002 
-4.111218e-002 
-4.143633e-002 
-4.124440e-002 
-4.093138e-002 
-4.117050e-002 
-4.186409e-002 
-4.154870e-002 
-4.097113e-002 