# vtk DataFile Version 2.0
2D-ADE data file 
ASCII
DATASET RECTILINEAR_GRID
DIMENSIONS 512 128 1
X_COORDINATES 512 int
0 1 2 3 4 5 6 7 8 9 10 11 12 13 14 15 16 17 18 19 20 21 22 23 24 25 26 27 28 29 30 31 32 33 34 35 36 37 38 39 40 41 42 43 44 45 46 47 48 49 50 51 52 53 54 55 56 57 58 59 60 61 62 63 64 65 66 67 68 69 70 71 72 73 74 75 76 77 78 79 80 81 82 83 84 85 86 87 88 89 90 91 92 93 94 95 96 97 98 99 100 101 102 103 104 105 106 107 108 109 110 111 112 113 114 115 116 117 118 119 120 121 122 123 124 125 126 127 128 129 130 131 132 133 134 135 136 137 138 139 140 141 142 143 144 145 146 147 148 149 150 151 152 153 154 155 156 157 158 159 160 161 162 163 164 165 166 167 168 169 170 171 172 173 174 175 176 177 178 179 180 181 182 183 184 185 186 187 188 189 190 191 192 193 194 195 196 197 198 199 200 201 202 203 204 205 206 207 208 209 210 211 212 213 214 215 216 217 218 219 220 221 222 223 224 225 226 227 228 229 230 231 232 233 234 235 236 237 238 239 240 241 242 243 244 245 246 247 248 249 250 251 252 253 254 255 256 257 258 259 260 261 262 263 264 265 266 267 268 269 270 271 272 273 274 275 276 277 278 279 280 281 282 283 284 285 286 287 288 289 290 291 292 293 294 295 296 297 298 299 300 301 302 303 304 305 306 307 308 309 310 311 312 313 314 315 316 317 318 319 320 321 322 323 324 325 326 327 328 329 330 331 332 333 334 335 336 337 338 339 340 341 342 343 344 345 346 347 348 349 350 351 352 353 354 355 356 357 358 359 360 361 362 363 364 365 366 367 368 369 370 371 372 373 374 375 376 377 378 379 380 381 382 383 384 385 386 387 388 389 390 391 392 393 394 395 396 397 398 399 400 401 402 403 404 405 406 407 408 409 410 411 412 413 414 415 416 417 418 419 420 421 422 423 424 425 426 427 428 429 430 431 432 433 434 435 436 437 438 439 440 441 442 443 444 445 446 447 448 449 450 451 452 453 454 455 456 457 458 459 460 461 462 463 464 465 466 467 468 469 470 471 472 473 474 475 476 477 478 479 480 481 482 483 484 485 486 487 488 489 490 491 492 493 494 495 496 497 498 499 500 501 502 503 504 505 506 507 508 509 510 511 
Y_COORDINATES 128 int
0 1 2 3 4 5 6 7 8 9 10 11 12 13 14 15 16 17 18 19 20 21 22 23 24 25 26 27 28 29 30 31 32 33 34 35 36 37 38 39 40 41 42 43 44 45 46 47 48 49 50 51 52 53 54 55 56 57 58 59 60 61 62 63 64 65 66 67 68 69 70 71 72 73 74 75 76 77 78 79 80 81 82 83 84 85 86 87 88 89 90 91 92 93 94 95 96 97 98 99 100 101 102 103 104 105 106 107 108 109 110 111 112 113 114 115 116 117 118 119 120 121 122 123 124 125 126 127 
Z_COORDINATES 1 int
0
POINT_DATA 65536 
SCALARS density double 1
LOOKUP_TABLE default
-2.059708e-002 
-3.325506e-002 
-3.037917e-002 
-3.007447e-002 
-3.022962e-002 
-3.007949e-002 
-3.021969e-002 
-3.010970e-002 
-3.003716e-002 
-2.996110e-002 
-3.003521e-002 
-2.999640e-002 
-3.003045e-002 
-2.995209e-002 
-3.005941e-002 
-3.004505e-002 
-2.996444e-002 
-3.010107e-002 
-3.011212e-002 
-2.999051e-002 
-3.001783e-002 
-3.000052e-002 
-2.998377e-002 
-3.003120e-002 
-3.003066e-002 
-2.999698e-002 
-2.994020e-002 
-2.990097e-002 
-2.985898e-002 
-2.984534e-002 
-2.975091e-002 
-2.966928e-002 
-2.955735e-002 
-2.957486e-002 
-2.964385e-002 
-2.933824e-002 
-2.935156e-002 
-2.949061e-002 
-2.916299e-002 
-2.921157e-002 
-2.932294e-002 
-2.915921e-002 
-2.894736e-002 
-2.910866e-002 
-2.911093e-002 
-2.882425e-002 
-2.901009e-002 
-2.912379e-002 
-2.884775e-002 
-2.869942e-002 
-2.894091e-002 
-2.877657e-002 
-2.872181e-002 
-2.896392e-002 
-2.890454e-002 
-2.886553e-002 
-2.892746e-002 
-2.896427e-002 
-2.896541e-002 
-2.898549e-002 
-2.884857e-002 
-2.892845e-002 
-2.906763e-002 
-2.902193e-002 
-2.885464e-002 
-2.903907e-002 
-2.897261e-002 
-2.883754e-002 
-2.904220e-002 
-2.905199e-002 
-2.895810e-002 
-2.903210e-002 
-2.919705e-002 
-2.915039e-002 
-2.914052e-002 
-2.907915e-002 
-2.909845e-002 
-2.908794e-002 
-2.909253e-002 
-2.912495e-002 
-2.921192e-002 
-2.908393e-002 
-2.903745e-002 
-2.897493e-002 
-2.902447e-002 
-2.902810e-002 
-2.903446e-002 
-2.923806e-002 
-2.899752e-002 
-2.886532e-002 
-2.908314e-002 
-2.903431e-002 
-2.898111e-002 
-2.904412e-002 
-2.899490e-002 
-2.885453e-002 
-2.886769e-002 
-2.900389e-002 
-2.908324e-002 
-2.884403e-002 
-2.882250e-002 
-2.882938e-002 
-2.870046e-002 
-2.858349e-002 
-2.875090e-002 
-2.893754e-002 
-2.866193e-002 
-2.851370e-002 
-2.866228e-002 
-2.860886e-002 
-2.852715e-002 
-2.865773e-002 
-2.868856e-002 
-2.846925e-002 
-2.843691e-002 
-2.843576e-002 
-2.846612e-002 
-2.858508e-002 
-2.855992e-002 
-2.864046e-002 
-2.849747e-002 
-2.842536e-002 
-2.874372e-002 
-2.851408e-002 
-2.857423e-002 
-2.866834e-002 
-2.872348e-002 
-2.854301e-002 
-2.866220e-002 
-2.874371e-002 
-2.843806e-002 
-2.840622e-002 
-2.882927e-002 
-2.859555e-002 
-2.839898e-002 
-2.870244e-002 
-2.869360e-002 
-2.840324e-002 
-2.855329e-002 
-2.865207e-002 
-2.869086e-002 
-2.844110e-002 
-2.865742e-002 
-2.897766e-002 
-2.855505e-002 
-2.849074e-002 
-2.885153e-002 
-2.869568e-002 
-2.860102e-002 
-2.878559e-002 
-2.896757e-002 
-2.874925e-002 
-2.862045e-002 
-2.875864e-002 
-2.875791e-002 
-2.864761e-002 
-2.868186e-002 
-2.881043e-002 
-2.884063e-002 
-2.868650e-002 
-2.862131e-002 
-2.865127e-002 
-2.856793e-002 
-2.870394e-002 
-2.883229e-002 
-2.883348e-002 
-2.862208e-002 
-2.853243e-002 
-2.869711e-002 
-2.870796e-002 
-2.877989e-002 
-2.889863e-002 
-2.874092e-002 
-2.876394e-002 
-2.866663e-002 
-2.859344e-002 
-2.874417e-002 
-2.873911e-002 
-2.893772e-002 
-2.884139e-002 
-2.860114e-002 
-2.856719e-002 
-2.854148e-002 
-2.856700e-002 
-2.874982e-002 
-2.869881e-002 
-2.861798e-002 
-2.852077e-002 
-2.844272e-002 
-2.859154e-002 
-2.856572e-002 
-2.841499e-002 
-2.846512e-002 
-2.854554e-002 
-2.861062e-002 
-2.863788e-002 
-2.856165e-002 
-2.856615e-002 
-2.836774e-002 
-2.838106e-002 
-2.884341e-002 
-2.877528e-002 
-2.853895e-002 
-2.851415e-002 
-2.843905e-002 
-2.840087e-002 
-2.832527e-002 
-2.840158e-002 
-2.848235e-002 
-2.840890e-002 
-2.826009e-002 
-2.815187e-002 
-2.809135e-002 
-2.819949e-002 
-2.846805e-002 
-2.846658e-002 
-2.819006e-002 
-2.798499e-002 
-2.802662e-002 
-2.824300e-002 
-2.841509e-002 
-2.835245e-002 
-2.838827e-002 
-2.851378e-002 
-2.842736e-002 
-2.848780e-002 
-2.845020e-002 
-2.837868e-002 
-2.839338e-002 
-2.856991e-002 
-2.874039e-002 
-2.867956e-002 
-2.864185e-002 
-2.858783e-002 
-2.856397e-002 
-2.866094e-002 
-2.891446e-002 
-2.906267e-002 
-2.891006e-002 
-2.892112e-002 
-2.891958e-002 
-2.898044e-002 
-2.904562e-002 
-2.908459e-002 
-2.919989e-002 
-2.908915e-002 
-2.935864e-002 
-2.949344e-002 
-2.929300e-002 
-2.920979e-002 
-2.941623e-002 
-2.958686e-002 
-2.957866e-002 
-2.951811e-002 
-2.962598e-002 
-2.947433e-002 
-2.936774e-002 
-2.957202e-002 
-2.956555e-002 
-2.971699e-002 
-2.984263e-002 
-2.989163e-002 
-2.967315e-002 
-2.937623e-002 
-2.938659e-002 
-2.937426e-002 
-2.966578e-002 
-2.980123e-002 
-2.978796e-002 
-2.980182e-002 
-2.964923e-002 
-2.962403e-002 
-2.971274e-002 
-2.963935e-002 
-2.973637e-002 
-2.995236e-002 
-2.989646e-002 
-2.956148e-002 
-2.930981e-002 
-2.929004e-002 
-2.956664e-002 
-2.997984e-002 
-2.994938e-002 
-2.962480e-002 
-2.927457e-002 
-2.908515e-002 
-2.926917e-002 
-2.963267e-002 
-2.965804e-002 
-2.965858e-002 
-2.953736e-002 
-2.947036e-002 
-2.955645e-002 
-2.930294e-002 
-2.920567e-002 
-2.928645e-002 
-2.926106e-002 
-2.947756e-002 
-2.954558e-002 
-2.942088e-002 
-2.931894e-002 
-2.926338e-002 
-2.933032e-002 
-2.941802e-002 
-2.958614e-002 
-2.946343e-002 
-2.918871e-002 
-2.941262e-002 
-2.941514e-002 
-2.941965e-002 
-2.953754e-002 
-2.953254e-002 
-2.962767e-002 
-2.967951e-002 
-2.962151e-002 
-2.959374e-002 
-2.947659e-002 
-2.928698e-002 
-2.947676e-002 
-2.979389e-002 
-2.986912e-002 
-2.975253e-002 
-2.991333e-002 
-2.998940e-002 
-2.963574e-002 
-2.969693e-002 
-2.972511e-002 
-2.969999e-002 
-2.968398e-002 
-2.963253e-002 
-2.993407e-002 
-3.017184e-002 
-3.018891e-002 
-3.011319e-002 
-2.989683e-002 
-2.957862e-002 
-2.952156e-002 
-2.973433e-002 
-3.004387e-002 
-3.009928e-002 
-3.004201e-002 
-3.003363e-002 
-2.989929e-002 
-2.993368e-002 
-2.991765e-002 
-2.974009e-002 
-2.970659e-002 
-2.979486e-002 
-2.973037e-002 
-2.997029e-002 
-3.024546e-002 
-3.005785e-002 
-3.014566e-002 
-3.009189e-002 
-3.002282e-002 
-3.018844e-002 
-3.036772e-002 
-3.046758e-002 
-3.013345e-002 
-2.980456e-002 
-2.970225e-002 
-2.962304e-002 
-3.000799e-002 
-3.056875e-002 
-3.071724e-002 
-3.029901e-002 
-2.990566e-002 
-2.978037e-002 
-2.981295e-002 
-2.988779e-002 
-2.971734e-002 
-2.938268e-002 
-2.914668e-002 
-2.929051e-002 
-2.937915e-002 
-2.961716e-002 
-2.946519e-002 
-2.916955e-002 
-2.927754e-002 
-2.922962e-002 
-2.935660e-002 
-2.899547e-002 
-2.867394e-002 
-2.864166e-002 
-2.878467e-002 
-2.907203e-002 
-2.947979e-002 
-2.947216e-002 
-2.918341e-002 
-2.902346e-002 
-2.900293e-002 
-2.908419e-002 
-2.902674e-002 
-2.906321e-002 
-2.876099e-002 
-2.869851e-002 
-2.886571e-002 
-2.926195e-002 
-2.952953e-002 
-2.938124e-002 
-2.937915e-002 
-2.936508e-002 
-2.939493e-002 
-2.924995e-002 
-2.902612e-002 
-2.859058e-002 
-2.844636e-002 
-2.858287e-002 
-2.906575e-002 
-2.937591e-002 
-2.936104e-002 
-2.947396e-002 
-2.935010e-002 
-2.923037e-002 
-2.911794e-002 
-2.909648e-002 
-2.898569e-002 
-2.887423e-002 
-2.886675e-002 
-2.886521e-002 
-2.884296e-002 
-2.904635e-002 
-2.932860e-002 
-2.957067e-002 
-2.965944e-002 
-2.948907e-002 
-2.913489e-002 
-2.851543e-002 
-2.829624e-002 
-2.837857e-002 
-2.879691e-002 
-2.909756e-002 
-2.910335e-002 
-2.905697e-002 
-2.897555e-002 
-2.888331e-002 
-2.922216e-002 
-2.938559e-002 
-2.896468e-002 
-2.800801e-002 
-2.674635e-002 
-2.597286e-002 
-2.512222e-002 
-2.474394e-002 
-2.443608e-002 
-2.416296e-002 
-2.387335e-002 
-2.363272e-002 
-2.395043e-002 
-2.445042e-002 
-2.500247e-002 
-2.533467e-002 
-2.545353e-002 
-2.541372e-002 
-2.533097e-002 
-2.548346e-002 
-2.562679e-002 
-2.528195e-002 
-2.469767e-002 
-2.397708e-002 
-2.399877e-002 
-2.445033e-002 
-2.453792e-002 
-2.438320e-002 
-2.385031e-002 
-2.390004e-002 
-2.444755e-002 
-2.530669e-002 
-2.591622e-002 
-2.582932e-002 
-2.554902e-002 
-2.516276e-002 
-2.515534e-002 
-2.545906e-002 
-2.595532e-002 
-2.633223e-002 
-2.618187e-002 
-2.601069e-002 
-2.576621e-002 
-2.565509e-002 
-2.596749e-002 
-2.612448e-002 
-2.616030e-002 
-2.620580e-002 
-2.646241e-002 
-2.665620e-002 
-2.662945e-002 
-2.659723e-002 
-2.657664e-002 
-2.686734e-002 
-2.718510e-002 
-2.740724e-002 
-2.708356e-002 
-2.625680e-002 
-2.568091e-002 
-2.548833e-002 
-2.559463e-002 
-2.588118e-002 
-2.624917e-002 
-2.651218e-002 
-2.670538e-002 
-2.679531e-002 
-2.703731e-002 
-2.742444e-002 
-2.772978e-002 
-2.756993e-002 
-2.735143e-002 
-2.708786e-002 
-2.669953e-002 
-2.612171e-002 
-2.546538e-002 
-1.966946e-002 
1.110223e-016 
-7.256978e-002 
-6.832606e-002 
-7.093926e-002 
-7.331102e-002 
-7.116112e-002 
-6.991859e-002 
-7.131623e-002 
-7.147775e-002 
-6.988563e-002 
-6.979881e-002 
-7.098480e-002 
-7.063603e-002 
-6.951927e-002 
-7.069185e-002 
-7.110129e-002 
-7.028158e-002 
-7.009006e-002 
-7.121493e-002 
-7.072154e-002 
-6.983669e-002 
-7.025685e-002 
-7.068676e-002 
-7.010717e-002 
-7.006129e-002 
-7.071867e-002 
-6.999365e-002 
-6.926096e-002 
-6.967562e-002 
-6.956887e-002 
-6.850593e-002 
-6.815096e-002 
-6.835873e-002 
-6.745675e-002 
-6.726894e-002 
-6.720229e-002 
-6.646285e-002 
-6.586163e-002 
-6.626687e-002 
-6.618524e-002 
-6.506297e-002 
-6.484167e-002 
-6.542602e-002 
-6.441716e-002 
-6.377200e-002 
-6.476275e-002 
-6.480743e-002 
-6.329193e-002 
-6.359323e-002 
-6.416169e-002 
-6.245548e-002 
-6.250076e-002 
-6.414561e-002 
-6.327382e-002 
-6.296304e-002 
-6.438097e-002 
-6.404684e-002 
-6.347740e-002 
-6.395174e-002 
-6.433321e-002 
-6.359639e-002 
-6.371832e-002 
-6.457305e-002 
-6.443167e-002 
-6.368230e-002 
-6.405666e-002 
-6.433903e-002 
-6.388112e-002 
-6.391750e-002 
-6.459437e-002 
-6.466318e-002 
-6.445522e-002 
-6.502874e-002 
-6.568342e-002 
-6.493080e-002 
-6.464273e-002 
-6.517916e-002 
-6.496188e-002 
-6.477350e-002 
-6.533038e-002 
-6.527822e-002 
-6.490021e-002 
-6.445276e-002 
-6.419348e-002 
-6.439509e-002 
-6.487737e-002 
-6.477831e-002 
-6.490883e-002 
-6.447863e-002 
-6.382217e-002 
-6.423461e-002 
-6.486424e-002 
-6.464365e-002 
-6.384831e-002 
-6.402706e-002 
-6.436119e-002 
-6.379610e-002 
-6.347820e-002 
-6.401373e-002 
-6.398890e-002 
-6.364147e-002 
-6.304878e-002 
-6.240586e-002 
-6.181142e-002 
-6.313849e-002 
-6.352907e-002 
-6.217815e-002 
-6.133550e-002 
-6.245496e-002 
-6.233742e-002 
-6.113500e-002 
-6.149508e-002 
-6.297727e-002 
-6.184892e-002 
-5.987310e-002 
-6.067862e-002 
-6.205609e-002 
-6.130713e-002 
-6.117222e-002 
-6.209799e-002 
-6.221173e-002 
-6.045113e-002 
-6.131479e-002 
-6.329590e-002 
-6.183843e-002 
-6.066690e-002 
-6.316396e-002 
-6.330362e-002 
-6.122131e-002 
-6.123549e-002 
-6.267042e-002 
-6.163874e-002 
-6.104290e-002 
-6.229145e-002 
-6.254937e-002 
-6.131198e-002 
-6.136268e-002 
-6.216160e-002 
-6.186637e-002 
-6.127743e-002 
-6.195609e-002 
-6.242600e-002 
-6.221213e-002 
-6.233255e-002 
-6.262311e-002 
-6.253076e-002 
-6.191821e-002 
-6.224012e-002 
-6.276414e-002 
-6.295429e-002 
-6.332869e-002 
-6.310028e-002 
-6.243676e-002 
-6.265673e-002 
-6.260941e-002 
-6.212290e-002 
-6.239172e-002 
-6.332251e-002 
-6.307181e-002 
-6.242803e-002 
-6.234376e-002 
-6.206070e-002 
-6.175017e-002 
-6.224050e-002 
-6.327741e-002 
-6.318083e-002 
-6.196150e-002 
-6.159572e-002 
-6.247551e-002 
-6.275019e-002 
-6.257667e-002 
-6.344443e-002 
-6.372108e-002 
-6.213998e-002 
-6.143330e-002 
-6.264532e-002 
-6.311250e-002 
-6.249393e-002 
-6.352285e-002 
-6.386577e-002 
-6.211030e-002 
-6.097966e-002 
-6.174616e-002 
-6.252273e-002 
-6.211202e-002 
-6.204217e-002 
-6.285022e-002 
-6.193612e-002 
-6.059682e-002 
-6.131731e-002 
-6.194348e-002 
-6.118339e-002 
-6.058678e-002 
-6.173848e-002 
-6.241544e-002 
-6.175018e-002 
-6.118740e-002 
-6.173214e-002 
-6.117035e-002 
-6.075884e-002 
-6.207320e-002 
-6.311586e-002 
-6.212591e-002 
-6.084126e-002 
-6.110121e-002 
-6.098989e-002 
-6.048747e-002 
-6.044040e-002 
-6.112059e-002 
-6.077173e-002 
-5.954178e-002 
-5.920721e-002 
-5.961611e-002 
-5.968851e-002 
-6.045064e-002 
-6.106741e-002 
-5.972006e-002 
-5.831753e-002 
-5.844607e-002 
-5.997137e-002 
-6.037156e-002 
-6.013657e-002 
-6.104728e-002 
-6.161262e-002 
-6.079931e-002 
-6.084197e-002 
-6.116157e-002 
-6.047952e-002 
-6.045766e-002 
-6.174154e-002 
-6.299322e-002 
-6.254368e-002 
-6.166450e-002 
-6.206704e-002 
-6.209484e-002 
-6.237832e-002 
-6.341135e-002 
-6.436187e-002 
-6.407394e-002 
-6.357408e-002 
-6.394711e-002 
-6.439827e-002 
-6.427343e-002 
-6.485359e-002 
-6.534463e-002 
-6.558748e-002 
-6.608243e-002 
-6.650189e-002 
-6.610613e-002 
-6.600671e-002 
-6.675427e-002 
-6.764151e-002 
-6.787440e-002 
-6.750634e-002 
-6.760692e-002 
-6.727713e-002 
-6.692087e-002 
-6.709065e-002 
-6.785809e-002 
-6.871212e-002 
-6.954381e-002 
-6.939421e-002 
-6.810244e-002 
-6.687718e-002 
-6.663710e-002 
-6.713948e-002 
-6.763016e-002 
-6.863755e-002 
-6.936429e-002 
-6.900704e-002 
-6.812881e-002 
-6.841891e-002 
-6.874814e-002 
-6.808258e-002 
-6.844677e-002 
-6.971510e-002 
-6.924866e-002 
-6.761583e-002 
-6.627121e-002 
-6.689725e-002 
-6.812062e-002 
-6.930182e-002 
-6.958298e-002 
-6.827889e-002 
-6.586540e-002 
-6.517829e-002 
-6.619193e-002 
-6.747029e-002 
-6.793705e-002 
-6.823981e-002 
-6.830572e-002 
-6.751740e-002 
-6.659516e-002 
-6.624445e-002 
-6.609560e-002 
-6.581585e-002 
-6.553263e-002 
-6.707308e-002 
-6.773724e-002 
-6.661579e-002 
-6.601610e-002 
-6.685689e-002 
-6.686991e-002 
-6.619976e-002 
-6.695502e-002 
-6.734140e-002 
-6.588314e-002 
-6.543178e-002 
-6.728687e-002 
-6.789852e-002 
-6.707001e-002 
-6.734767e-002 
-6.865988e-002 
-6.829656e-002 
-6.726095e-002 
-6.731982e-002 
-6.735887e-002 
-6.665834e-002 
-6.689447e-002 
-6.854442e-002 
-6.993298e-002 
-6.959001e-002 
-6.929910e-002 
-6.952065e-002 
-6.917672e-002 
-6.813076e-002 
-6.818988e-002 
-6.867658e-002 
-6.856403e-002 
-6.849840e-002 
-6.961780e-002 
-7.117005e-002 
-7.118701e-002 
-7.062941e-002 
-6.977408e-002 
-6.863666e-002 
-6.796988e-002 
-6.857994e-002 
-6.987206e-002 
-7.050316e-002 
-7.031389e-002 
-7.023076e-002 
-7.042951e-002 
-7.000324e-002 
-6.957973e-002 
-6.925174e-002 
-6.882711e-002 
-6.854406e-002 
-6.887489e-002 
-6.992560e-002 
-7.076099e-002 
-7.091309e-002 
-7.093887e-002 
-7.120241e-002 
-7.144992e-002 
-7.198482e-002 
-7.235674e-002 
-7.222575e-002 
-7.075837e-002 
-6.886703e-002 
-6.804082e-002 
-6.881481e-002 
-7.086961e-002 
-7.317389e-002 
-7.406386e-002 
-7.253272e-002 
-7.042853e-002 
-6.928798e-002 
-6.946491e-002 
-6.880319e-002 
-6.776986e-002 
-6.646951e-002 
-6.582198e-002 
-6.600782e-002 
-6.667584e-002 
-6.725191e-002 
-6.732728e-002 
-6.632858e-002 
-6.584252e-002 
-6.617639e-002 
-6.546603e-002 
-6.380856e-002 
-6.227755e-002 
-6.236438e-002 
-6.320390e-002 
-6.495721e-002 
-6.650234e-002 
-6.702638e-002 
-6.606583e-002 
-6.480502e-002 
-6.451472e-002 
-6.448615e-002 
-6.444552e-002 
-6.377598e-002 
-6.300811e-002 
-6.273918e-002 
-6.369441e-002 
-6.530843e-002 
-6.697787e-002 
-6.744348e-002 
-6.699173e-002 
-6.706349e-002 
-6.653636e-002 
-6.543583e-002 
-6.356318e-002 
-6.186450e-002 
-6.121972e-002 
-6.204266e-002 
-6.422687e-002 
-6.611435e-002 
-6.703916e-002 
-6.709579e-002 
-6.687385e-002 
-6.613204e-002 
-6.541976e-002 
-6.427246e-002 
-6.397019e-002 
-6.340486e-002 
-6.301605e-002 
-6.298026e-002 
-6.366790e-002 
-6.473026e-002 
-6.642346e-002 
-6.801122e-002 
-6.836378e-002 
-6.733261e-002 
-6.464130e-002 
-6.207973e-002 
-6.037235e-002 
-6.053947e-002 
-6.211366e-002 
-6.419985e-002 
-6.466521e-002 
-6.463810e-002 
-6.452462e-002 
-6.503548e-002 
-6.599331e-002 
-6.594149e-002 
-6.365926e-002 
-5.845927e-002 
-5.204695e-002 
-4.606834e-002 
-4.118512e-002 
-3.802812e-002 
-3.611751e-002 
-3.428015e-002 
-3.333072e-002 
-3.291069e-002 
-3.421101e-002 
-3.681298e-002 
-4.000493e-002 
-4.264432e-002 
-4.309825e-002 
-4.294132e-002 
-4.281350e-002 
-4.325002e-002 
-4.356051e-002 
-4.172106e-002 
-3.820507e-002 
-3.542046e-002 
-3.513334e-002 
-3.585501e-002 
-3.628049e-002 
-3.563392e-002 
-3.472632e-002 
-3.494445e-002 
-3.699604e-002 
-4.087720e-002 
-4.470116e-002 
-4.552531e-002 
-4.416684e-002 
-4.203424e-002 
-4.122197e-002 
-4.305444e-002 
-4.602600e-002 
-4.769379e-002 
-4.753291e-002 
-4.665875e-002 
-4.556349e-002 
-4.483244e-002 
-4.515744e-002 
-4.631399e-002 
-4.719154e-002 
-4.781833e-002 
-4.882839e-002 
-4.946133e-002 
-4.985017e-002 
-5.022074e-002 
-5.079009e-002 
-5.188606e-002 
-5.367792e-002 
-5.471626e-002 
-5.269828e-002 
-4.807684e-002 
-4.390917e-002 
-4.266638e-002 
-4.383005e-002 
-4.561990e-002 
-4.723628e-002 
-4.876854e-002 
-5.009343e-002 
-5.169962e-002 
-5.340786e-002 
-5.506385e-002 
-5.641232e-002 
-5.662600e-002 
-5.537759e-002 
-5.272030e-002 
-4.915133e-002 
-4.565276e-002 
-4.302982e-002 
-4.302982e-002 
1.110223e-016 
-7.206506e-002 
-7.168990e-002 
-7.096706e-002 
-7.058492e-002 
-7.193519e-002 
-7.169195e-002 
-7.066852e-002 
-7.114282e-002 
-7.148744e-002 
-7.070574e-002 
-7.037601e-002 
-7.074125e-002 
-7.105191e-002 
-7.013224e-002 
-7.007915e-002 
-7.113831e-002 
-7.076368e-002 
-7.022066e-002 
-7.081966e-002 
-7.093599e-002 
-6.967279e-002 
-7.011230e-002 
-7.025107e-002 
-6.974451e-002 
-6.987600e-002 
-6.922510e-002 
-6.917851e-002 
-6.937964e-002 
-6.871884e-002 
-6.841948e-002 
-6.872292e-002 
-6.795708e-002 
-6.744036e-002 
-6.736366e-002 
-6.662950e-002 
-6.599537e-002 
-6.590495e-002 
-6.609865e-002 
-6.602396e-002 
-6.483369e-002 
-6.505637e-002 
-6.545211e-002 
-6.445374e-002 
-6.411207e-002 
-6.489767e-002 
-6.423727e-002 
-6.353280e-002 
-6.401461e-002 
-6.361026e-002 
-6.303668e-002 
-6.355520e-002 
-6.367655e-002 
-6.307934e-002 
-6.341935e-002 
-6.316405e-002 
-6.313509e-002 
-6.396253e-002 
-6.359321e-002 
-6.355990e-002 
-6.419173e-002 
-6.431555e-002 
-6.342497e-002 
-6.420490e-002 
-6.468527e-002 
-6.378443e-002 
-6.399588e-002 
-6.512043e-002 
-6.489736e-002 
-6.405041e-002 
-6.509394e-002 
-6.514688e-002 
-6.460379e-002 
-6.483865e-002 
-6.575627e-002 
-6.523757e-002 
-6.483954e-002 
-6.512978e-002 
-6.516860e-002 
-6.529053e-002 
-6.494175e-002 
-6.489042e-002 
-6.516014e-002 
-6.431309e-002 
-6.426252e-002 
-6.527507e-002 
-6.531794e-002 
-6.427482e-002 
-6.441889e-002 
-6.502076e-002 
-6.435813e-002 
-6.439533e-002 
-6.522325e-002 
-6.448107e-002 
-6.312077e-002 
-6.373210e-002 
-6.393741e-002 
-6.308245e-002 
-6.363404e-002 
-6.422436e-002 
-6.367892e-002 
-6.181770e-002 
-6.236586e-002 
-6.415448e-002 
-6.307933e-002 
-6.200274e-002 
-6.262640e-002 
-6.251633e-002 
-6.103426e-002 
-6.138578e-002 
-6.261945e-002 
-6.253402e-002 
-6.093631e-002 
-6.115151e-002 
-6.130653e-002 
-6.060376e-002 
-6.098181e-002 
-6.202017e-002 
-6.212377e-002 
-6.029276e-002 
-6.102487e-002 
-6.186307e-002 
-6.166328e-002 
-6.218036e-002 
-6.314860e-002 
-6.209408e-002 
-6.150789e-002 
-6.283274e-002 
-6.245864e-002 
-6.137235e-002 
-6.241714e-002 
-6.235867e-002 
-6.155468e-002 
-6.191532e-002 
-6.272677e-002 
-6.158284e-002 
-6.120251e-002 
-6.223000e-002 
-6.304481e-002 
-6.113844e-002 
-6.142191e-002 
-6.263380e-002 
-6.180269e-002 
-6.191630e-002 
-6.322727e-002 
-6.326870e-002 
-6.187874e-002 
-6.131594e-002 
-6.312314e-002 
-6.308672e-002 
-6.229886e-002 
-6.357796e-002 
-6.352616e-002 
-6.158091e-002 
-6.149320e-002 
-6.280989e-002 
-6.326682e-002 
-6.233554e-002 
-6.249443e-002 
-6.273089e-002 
-6.192319e-002 
-6.128745e-002 
-6.239444e-002 
-6.342383e-002 
-6.239344e-002 
-6.175279e-002 
-6.226310e-002 
-6.173632e-002 
-6.204262e-002 
-6.309605e-002 
-6.314516e-002 
-6.263086e-002 
-6.165283e-002 
-6.240128e-002 
-6.297551e-002 
-6.257396e-002 
-6.273560e-002 
-6.342482e-002 
-6.302999e-002 
-6.204805e-002 
-6.251926e-002 
-6.216314e-002 
-6.230325e-002 
-6.287629e-002 
-6.291961e-002 
-6.212125e-002 
-6.086708e-002 
-6.114266e-002 
-6.233381e-002 
-6.261771e-002 
-6.242307e-002 
-6.148227e-002 
-6.013993e-002 
-6.006752e-002 
-6.181321e-002 
-6.383674e-002 
-6.246219e-002 
-5.999455e-002 
-6.028053e-002 
-6.132611e-002 
-6.165827e-002 
-6.199677e-002 
-6.226355e-002 
-6.149491e-002 
-6.020803e-002 
-6.081649e-002 
-6.138459e-002 
-6.111550e-002 
-6.081312e-002 
-6.096629e-002 
-6.048111e-002 
-5.905567e-002 
-5.886669e-002 
-6.078800e-002 
-6.183983e-002 
-6.039295e-002 
-5.894834e-002 
-5.805033e-002 
-5.954176e-002 
-6.111534e-002 
-6.219755e-002 
-6.091755e-002 
-5.857299e-002 
-5.965980e-002 
-6.131848e-002 
-6.206011e-002 
-6.113909e-002 
-5.993613e-002 
-6.009198e-002 
-6.120559e-002 
-6.300615e-002 
-6.388814e-002 
-6.276838e-002 
-6.170976e-002 
-6.187620e-002 
-6.293771e-002 
-6.351826e-002 
-6.405841e-002 
-6.393849e-002 
-6.303372e-002 
-6.343614e-002 
-6.480155e-002 
-6.619755e-002 
-6.537633e-002 
-6.423662e-002 
-6.443000e-002 
-6.473602e-002 
-6.620657e-002 
-6.683893e-002 
-6.684417e-002 
-6.617535e-002 
-6.681645e-002 
-6.790046e-002 
-6.780587e-002 
-6.752246e-002 
-6.726006e-002 
-6.752997e-002 
-6.753480e-002 
-6.780690e-002 
-6.783264e-002 
-6.842391e-002 
-6.846293e-002 
-6.810082e-002 
-6.777964e-002 
-6.750296e-002 
-6.752816e-002 
-6.768986e-002 
-6.864871e-002 
-6.864724e-002 
-6.885456e-002 
-6.854430e-002 
-6.798573e-002 
-6.795379e-002 
-6.744560e-002 
-6.840338e-002 
-6.903949e-002 
-6.858838e-002 
-6.838453e-002 
-6.730544e-002 
-6.661491e-002 
-6.738307e-002 
-6.936429e-002 
-6.936766e-002 
-6.739644e-002 
-6.655885e-002 
-6.631574e-002 
-6.629956e-002 
-6.756828e-002 
-6.784239e-002 
-6.780447e-002 
-6.727758e-002 
-6.697482e-002 
-6.777712e-002 
-6.672588e-002 
-6.628867e-002 
-6.631260e-002 
-6.622425e-002 
-6.674933e-002 
-6.696545e-002 
-6.744447e-002 
-6.637360e-002 
-6.552072e-002 
-6.622221e-002 
-6.698433e-002 
-6.705015e-002 
-6.694879e-002 
-6.682425e-002 
-6.634207e-002 
-6.603270e-002 
-6.703636e-002 
-6.832312e-002 
-6.744116e-002 
-6.744853e-002 
-6.832613e-002 
-6.766723e-002 
-6.700408e-002 
-6.664855e-002 
-6.714245e-002 
-6.788021e-002 
-6.794050e-002 
-6.882572e-002 
-6.955194e-002 
-6.976530e-002 
-6.928487e-002 
-6.902641e-002 
-6.937575e-002 
-6.861606e-002 
-6.772039e-002 
-6.827040e-002 
-6.883683e-002 
-6.963008e-002 
-7.100787e-002 
-7.167085e-002 
-7.126994e-002 
-6.934303e-002 
-6.815379e-002 
-6.793326e-002 
-6.866570e-002 
-6.992396e-002 
-7.062226e-002 
-7.064292e-002 
-6.948201e-002 
-6.928824e-002 
-7.034533e-002 
-7.061832e-002 
-6.950611e-002 
-6.916146e-002 
-6.940194e-002 
-6.875480e-002 
-6.906117e-002 
-7.082808e-002 
-7.167847e-002 
-7.132392e-002 
-7.095579e-002 
-7.057241e-002 
-7.067652e-002 
-7.142047e-002 
-7.209140e-002 
-7.169648e-002 
-7.017109e-002 
-6.909446e-002 
-6.872221e-002 
-7.046036e-002 
-7.283035e-002 
-7.292212e-002 
-7.216893e-002 
-6.999894e-002 
-6.901733e-002 
-6.954364e-002 
-6.945573e-002 
-6.899544e-002 
-6.642177e-002 
-6.581298e-002 
-6.622537e-002 
-6.704334e-002 
-6.774466e-002 
-6.681638e-002 
-6.570373e-002 
-6.474995e-002 
-6.519710e-002 
-6.546340e-002 
-6.462053e-002 
-6.332821e-002 
-6.325528e-002 
-6.361055e-002 
-6.494478e-002 
-6.603789e-002 
-6.614632e-002 
-6.580946e-002 
-6.457517e-002 
-6.472496e-002 
-6.480911e-002 
-6.441923e-002 
-6.377407e-002 
-6.290197e-002 
-6.302324e-002 
-6.433225e-002 
-6.628571e-002 
-6.727658e-002 
-6.670146e-002 
-6.606369e-002 
-6.547281e-002 
-6.520835e-002 
-6.533259e-002 
-6.442002e-002 
-6.324121e-002 
-6.226510e-002 
-6.308291e-002 
-6.433595e-002 
-6.570169e-002 
-6.674050e-002 
-6.637657e-002 
-6.631816e-002 
-6.567891e-002 
-6.536330e-002 
-6.464065e-002 
-6.368614e-002 
-6.320015e-002 
-6.344006e-002 
-6.375545e-002 
-6.444050e-002 
-6.484502e-002 
-6.591468e-002 
-6.691267e-002 
-6.696281e-002 
-6.689364e-002 
-6.520592e-002 
-6.285155e-002 
-6.127838e-002 
-6.188924e-002 
-6.305571e-002 
-6.397066e-002 
-6.435885e-002 
-6.395574e-002 
-6.331223e-002 
-6.436954e-002 
-6.518135e-002 
-6.519673e-002 
-6.250887e-002 
-5.692353e-002 
-5.113777e-002 
-4.575968e-002 
-4.289500e-002 
-3.984038e-002 
-3.747015e-002 
-3.562352e-002 
-3.362118e-002 
-3.342387e-002 
-3.434695e-002 
-3.729589e-002 
-4.047041e-002 
-4.195867e-002 
-4.288185e-002 
-4.215354e-002 
-4.206454e-002 
-4.317645e-002 
-4.352436e-002 
-4.208739e-002 
-3.813536e-002 
-3.549637e-002 
-3.507133e-002 
-3.621376e-002 
-3.693511e-002 
-3.532857e-002 
-3.440633e-002 
-3.517081e-002 
-3.859367e-002 
-4.216948e-002 
-4.374046e-002 
-4.393505e-002 
-4.275410e-002 
-4.221092e-002 
-4.318253e-002 
-4.493779e-002 
-4.651426e-002 
-4.645104e-002 
-4.564287e-002 
-4.467576e-002 
-4.454689e-002 
-4.580132e-002 
-4.743213e-002 
-4.828956e-002 
-4.731317e-002 
-4.630355e-002 
-4.701975e-002 
-4.916123e-002 
-5.125672e-002 
-5.190592e-002 
-5.126458e-002 
-5.067870e-002 
-5.146301e-002 
-5.203664e-002 
-5.098490e-002 
-4.897774e-002 
-4.666698e-002 
-4.521841e-002 
-4.468748e-002 
-4.536330e-002 
-4.658323e-002 
-4.910741e-002 
-5.099630e-002 
-5.158876e-002 
-5.274615e-002 
-5.457007e-002 
-5.587968e-002 
-5.467929e-002 
-5.291100e-002 
-5.130603e-002 
-4.991809e-002 
-4.732082e-002 
-4.384500e-002 
-4.384500e-002 
1.110223e-016 
-7.042935e-002 
-7.306306e-002 
-7.108760e-002 
-7.003467e-002 
-7.156591e-002 
-7.219837e-002 
-7.085535e-002 
-7.096806e-002 
-7.198965e-002 
-7.162454e-002 
-7.041083e-002 
-7.045804e-002 
-7.116276e-002 
-7.075422e-002 
-6.982525e-002 
-7.089030e-002 
-7.122216e-002 
-7.041072e-002 
-7.031743e-002 
-7.068205e-002 
-7.014247e-002 
-6.942604e-002 
-7.009928e-002 
-6.962373e-002 
-6.859101e-002 
-6.862097e-002 
-6.905289e-002 
-6.852350e-002 
-6.822802e-002 
-6.880735e-002 
-6.800479e-002 
-6.736797e-002 
-6.823270e-002 
-6.731121e-002 
-6.562419e-002 
-6.639260e-002 
-6.678524e-002 
-6.546689e-002 
-6.498535e-002 
-6.573082e-002 
-6.525350e-002 
-6.459143e-002 
-6.524566e-002 
-6.499112e-002 
-6.361226e-002 
-6.376991e-002 
-6.485865e-002 
-6.365719e-002 
-6.278117e-002 
-6.427739e-002 
-6.414360e-002 
-6.228184e-002 
-6.298280e-002 
-6.378521e-002 
-6.253321e-002 
-6.280204e-002 
-6.454420e-002 
-6.414034e-002 
-6.344430e-002 
-6.364212e-002 
-6.439402e-002 
-6.388790e-002 
-6.397993e-002 
-6.472596e-002 
-6.468321e-002 
-6.441509e-002 
-6.489990e-002 
-6.536197e-002 
-6.495577e-002 
-6.482153e-002 
-6.546498e-002 
-6.529857e-002 
-6.495740e-002 
-6.547349e-002 
-6.539709e-002 
-6.503879e-002 
-6.511590e-002 
-6.553460e-002 
-6.532878e-002 
-6.562092e-002 
-6.507273e-002 
-6.454688e-002 
-6.474497e-002 
-6.515639e-002 
-6.506157e-002 
-6.535393e-002 
-6.512200e-002 
-6.431267e-002 
-6.474615e-002 
-6.508628e-002 
-6.489169e-002 
-6.479681e-002 
-6.450634e-002 
-6.371095e-002 
-6.299220e-002 
-6.331783e-002 
-6.401231e-002 
-6.401894e-002 
-6.330831e-002 
-6.335882e-002 
-6.303247e-002 
-6.264469e-002 
-6.282252e-002 
-6.315996e-002 
-6.274738e-002 
-6.253080e-002 
-6.218368e-002 
-6.144623e-002 
-6.179299e-002 
-6.251038e-002 
-6.213394e-002 
-6.083334e-002 
-6.117744e-002 
-6.182516e-002 
-6.113502e-002 
-6.069472e-002 
-6.188369e-002 
-6.220644e-002 
-6.074893e-002 
-6.048253e-002 
-6.240520e-002 
-6.270368e-002 
-6.112946e-002 
-6.240843e-002 
-6.294961e-002 
-6.167456e-002 
-6.175823e-002 
-6.413679e-002 
-6.268773e-002 
-6.076411e-002 
-6.181618e-002 
-6.347876e-002 
-6.190014e-002 
-6.161456e-002 
-6.277602e-002 
-6.246379e-002 
-6.070610e-002 
-6.211575e-002 
-6.306048e-002 
-6.188317e-002 
-6.097398e-002 
-6.260366e-002 
-6.329115e-002 
-6.203770e-002 
-6.173707e-002 
-6.257454e-002 
-6.237886e-002 
-6.194720e-002 
-6.285516e-002 
-6.370045e-002 
-6.295524e-002 
-6.204303e-002 
-6.187172e-002 
-6.244284e-002 
-6.250315e-002 
-6.277465e-002 
-6.254895e-002 
-6.245149e-002 
-6.230944e-002 
-6.161636e-002 
-6.177133e-002 
-6.242254e-002 
-6.307922e-002 
-6.244994e-002 
-6.218038e-002 
-6.217810e-002 
-6.177176e-002 
-6.207705e-002 
-6.310514e-002 
-6.300362e-002 
-6.220209e-002 
-6.229428e-002 
-6.301824e-002 
-6.316399e-002 
-6.215945e-002 
-6.186960e-002 
-6.282656e-002 