# vtk DataFile Version 2.0
2D-ADE data file 
ASCII
DATASET RECTILINEAR_GRID
DIMENSIONS 512 128 1
X_COORDINATES 512 int
0 1 2 3 4 5 6 7 8 9 10 11 12 13 14 15 16 17 18 19 20 21 22 23 24 25 26 27 28 29 30 31 32 33 34 35 36 37 38 39 40 41 42 43 44 45 46 47 48 49 50 51 52 53 54 55 56 57 58 59 60 61 62 63 64 65 66 67 68 69 70 71 72 73 74 75 76 77 78 79 80 81 82 83 84 85 86 87 88 89 90 91 92 93 94 95 96 97 98 99 100 101 102 103 104 105 106 107 108 109 110 111 112 113 114 115 116 117 118 119 120 121 122 123 124 125 126 127 128 129 130 131 132 133 134 135 136 137 138 139 140 141 142 143 144 145 146 147 148 149 150 151 152 153 154 155 156 157 158 159 160 161 162 163 164 165 166 167 168 169 170 171 172 173 174 175 176 177 178 179 180 181 182 183 184 185 186 187 188 189 190 191 192 193 194 195 196 197 198 199 200 201 202 203 204 205 206 207 208 209 210 211 212 213 214 215 216 217 218 219 220 221 222 223 224 225 226 227 228 229 230 231 232 233 234 235 236 237 238 239 240 241 242 243 244 245 246 247 248 249 250 251 252 253 254 255 256 257 258 259 260 261 262 263 264 265 266 267 268 269 270 271 272 273 274 275 276 277 278 279 280 281 282 283 284 285 286 287 288 289 290 291 292 293 294 295 296 297 298 299 300 301 302 303 304 305 306 307 308 309 310 311 312 313 314 315 316 317 318 319 320 321 322 323 324 325 326 327 328 329 330 331 332 333 334 335 336 337 338 339 340 341 342 343 344 345 346 347 348 349 350 351 352 353 354 355 356 357 358 359 360 361 362 363 364 365 366 367 368 369 370 371 372 373 374 375 376 377 378 379 380 381 382 383 384 385 386 387 388 389 390 391 392 393 394 395 396 397 398 399 400 401 402 403 404 405 406 407 408 409 410 411 412 413 414 415 416 417 418 419 420 421 422 423 424 425 426 427 428 429 430 431 432 433 434 435 436 437 438 439 440 441 442 443 444 445 446 447 448 449 450 451 452 453 454 455 456 457 458 459 460 461 462 463 464 465 466 467 468 469 470 471 472 473 474 475 476 477 478 479 480 481 482 483 484 485 486 487 488 489 490 491 492 493 494 495 496 497 498 499 500 501 502 503 504 505 506 507 508 509 510 511 
Y_COORDINATES 128 int
0 1 2 3 4 5 6 7 8 9 10 11 12 13 14 15 16 17 18 19 20 21 22 23 24 25 26 27 28 29 30 31 32 33 34 35 36 37 38 39 40 41 42 43 44 45 46 47 48 49 50 51 52 53 54 55 56 57 58 59 60 61 62 63 64 65 66 67 68 69 70 71 72 73 74 75 76 77 78 79 80 81 82 83 84 85 86 87 88 89 90 91 92 93 94 95 96 97 98 99 100 101 102 103 104 105 106 107 108 109 110 111 112 113 114 115 116 117 118 119 120 121 122 123 124 125 126 127 
Z_COORDINATES 1 int
0
POINT_DATA 65536 
SCALARS density double 1
LOOKUP_TABLE default
-2.212638e-002 
-3.206209e-002 
-2.865174e-002 
-2.821262e-002 
-2.835656e-002 
-2.827266e-002 
-2.840126e-002 
-2.835194e-002 
-2.832052e-002 
-2.829790e-002 
-2.840012e-002 
-2.831603e-002 
-2.835164e-002 
-2.824706e-002 
-2.830333e-002 
-2.838759e-002 
-2.819031e-002 
-2.823114e-002 
-2.835655e-002 
-2.822447e-002 
-2.822628e-002 
-2.830076e-002 
-2.828481e-002 
-2.826409e-002 
-2.826865e-002 
-2.824105e-002 
-2.827093e-002 
-2.827656e-002 
-2.818244e-002 
-2.820090e-002 
-2.828107e-002 
-2.817062e-002 
-2.810626e-002 
-2.829137e-002 
-2.829308e-002 
-2.808828e-002 
-2.822427e-002 
-2.837871e-002 
-2.815551e-002 
-2.813607e-002 
-2.839752e-002 
-2.827182e-002 
-2.808444e-002 
-2.829918e-002 
-2.841322e-002 
-2.811042e-002 
-2.816689e-002 
-2.840359e-002 
-2.821122e-002 
-2.806018e-002 
-2.837660e-002 
-2.829247e-002 
-2.809539e-002 
-2.831099e-002 
-2.828487e-002 
-2.817963e-002 
-2.826789e-002 
-2.826577e-002 
-2.823363e-002 
-2.825621e-002 
-2.820039e-002 
-2.821613e-002 
-2.831578e-002 
-2.820733e-002 
-2.817277e-002 
-2.829717e-002 
-2.829464e-002 
-2.810966e-002 
-2.827616e-002 
-2.834284e-002 
-2.813060e-002 
-2.820181e-002 
-2.832392e-002 
-2.818069e-002 
-2.815721e-002 
-2.828546e-002 
-2.823263e-002 
-2.823128e-002 
-2.822436e-002 
-2.825512e-002 
-2.824444e-002 
-2.819718e-002 
-2.822596e-002 
-2.824887e-002 
-2.822073e-002 
-2.817251e-002 
-2.816746e-002 
-2.821562e-002 
-2.815451e-002 
-2.806908e-002 
-2.816102e-002 
-2.818762e-002 
-2.808062e-002 
-2.808992e-002 
-2.818631e-002 
-2.807326e-002 
-2.798646e-002 
-2.814574e-002 
-2.815370e-002 
-2.798874e-002 
-2.799940e-002 
-2.818383e-002 
-2.802767e-002 
-2.786692e-002 
-2.812649e-002 
-2.820559e-002 
-2.790020e-002 
-2.789140e-002 
-2.814667e-002 
-2.803091e-002 
-2.781060e-002 
-2.796337e-002 
-2.808151e-002 
-2.786667e-002 
-2.782106e-002 
-2.803277e-002 
-2.793378e-002 
-2.779202e-002 
-2.786854e-002 
-2.792217e-002 
-2.789196e-002 
-2.767868e-002 
-2.796084e-002 
-2.789733e-002 
-2.758183e-002 
-2.790752e-002 
-2.784419e-002 
-2.768032e-002 
-2.768513e-002 
-2.787939e-002 
-2.770591e-002 
-2.756562e-002 
-2.779411e-002 
-2.776154e-002 
-2.755734e-002 
-2.766757e-002 
-2.777870e-002 
-2.757493e-002 
-2.753445e-002 
-2.772299e-002 
-2.769170e-002 
-2.747548e-002 
-2.765040e-002 
-2.775047e-002 
-2.753347e-002 
-2.750348e-002 
-2.773288e-002 
-2.765236e-002 
-2.742116e-002 
-2.759671e-002 
-2.769118e-002 
-2.747092e-002 
-2.747166e-002 
-2.766191e-002 
-2.758681e-002 
-2.743237e-002 
-2.756037e-002 
-2.764441e-002 
-2.753009e-002 
-2.750701e-002 
-2.764366e-002 
-2.763981e-002 
-2.750442e-002 
-2.757765e-002 
-2.770319e-002 
-2.761906e-002 
-2.752463e-002 
-2.764520e-002 
-2.768182e-002 
-2.755263e-002 
-2.755109e-002 
-2.768045e-002 
-2.763936e-002 
-2.747228e-002 
-2.757536e-002 
-2.768670e-002 
-2.756504e-002 
-2.748064e-002 
-2.762937e-002 
-2.766275e-002 
-2.750684e-002 
-2.755024e-002 
-2.772257e-002 
-2.763868e-002 
-2.749797e-002 
-2.764685e-002 
-2.776595e-002 
-2.759991e-002 
-2.756992e-002 
-2.777785e-002 
-2.774107e-002 
-2.757196e-002 
-2.770659e-002 
-2.785118e-002 
-2.768075e-002 
-2.761749e-002 
-2.779297e-002 
-2.782761e-002 
-2.764882e-002 
-2.770098e-002 
-2.789880e-002 
-2.776855e-002 
-2.762636e-002 
-2.781491e-002 
-2.793440e-002 
-2.775604e-002 
-2.774114e-002 
-2.792802e-002 
-2.790042e-002 
-2.774260e-002 
-2.787665e-002 
-2.802849e-002 
-2.786769e-002 
-2.779467e-002 
-2.798183e-002 
-2.800210e-002 
-2.784430e-002 
-2.789887e-002 
-2.804530e-002 
-2.793290e-002 
-2.782185e-002 
-2.797638e-002 
-2.804385e-002 
-2.786320e-002 
-2.786478e-002 
-2.806199e-002 
-2.797949e-002 
-2.782375e-002 
-2.794905e-002 
-2.807054e-002 
-2.794526e-002 
-2.786999e-002 
-2.801253e-002 
-2.805326e-002 
-2.791384e-002 
-2.792416e-002 
-2.806411e-002 
-2.797926e-002 
-2.787096e-002 
-2.798083e-002 
-2.802137e-002 
-2.789729e-002 
-2.789722e-002 
-2.800076e-002 
-2.796876e-002 
-2.790807e-002 
-2.796278e-002 
-2.800207e-002 
-2.790372e-002 
-2.787889e-002 
-2.797749e-002 
-2.793487e-002 
-2.785297e-002 
-2.790157e-002 
-2.796433e-002 
-2.789750e-002 
-2.786777e-002 
-2.796491e-002 
-2.794880e-002 
-2.786628e-002 
-2.789630e-002 
-2.796664e-002 
-2.789774e-002 
-2.784000e-002 
-2.790969e-002 
-2.792504e-002 
-2.783346e-002 
-2.786528e-002 
-2.795543e-002 
-2.788902e-002 
-2.782846e-002 
-2.792473e-002 
-2.794219e-002 
-2.786392e-002 
-2.784947e-002 
-2.792497e-002 
-2.787005e-002 
-2.779894e-002 
-2.788967e-002 
-2.794542e-002 
-2.786672e-002 
-2.783166e-002 
-2.794221e-002 
-2.792411e-002 
-2.781420e-002 
-2.789497e-002 
-2.797807e-002 
-2.789120e-002 
-2.782286e-002 
-2.791444e-002 
-2.797825e-002 
-2.789130e-002 
-2.787281e-002 
-2.798732e-002 
-2.795685e-002 
-2.786478e-002 
-2.793657e-002 
-2.800498e-002 
-2.792771e-002 
-2.790224e-002 
-2.798181e-002 
-2.794523e-002 
-2.788152e-002 
-2.790391e-002 
-2.794118e-002 
-2.789853e-002 
-2.789097e-002 
-2.792086e-002 
-2.791460e-002 
-2.785457e-002 
-2.789307e-002 
-2.793092e-002 
-2.787825e-002 
-2.787827e-002 
-2.794844e-002 
-2.792880e-002 
-2.785204e-002 
-2.787998e-002 
-2.791647e-002 
-2.785863e-002 
-2.782677e-002 
-2.786429e-002 
-2.788449e-002 
-2.779294e-002 
-2.777701e-002 
-2.790299e-002 
-2.787879e-002 
-2.782538e-002 
-2.788786e-002 
-2.792725e-002 
-2.786520e-002 
-2.785530e-002 
-2.790012e-002 
-2.794555e-002 
-2.792132e-002 
-2.786519e-002 
-2.790209e-002 
-2.791455e-002 
-2.787273e-002 
-2.788035e-002 
-2.790926e-002 
-2.791567e-002 
-2.791978e-002 
-2.791374e-002 
-2.793256e-002 
-2.795047e-002 
-2.796651e-002 
-2.796999e-002 
-2.796825e-002 
-2.800642e-002 
-2.799587e-002 
-2.797207e-002 
-2.800049e-002 
-2.797320e-002 
-2.797156e-002 
-2.800518e-002 
-2.799477e-002 
-2.796489e-002 
-2.793989e-002 
-2.800575e-002 
-2.803164e-002 
-2.796778e-002 
-2.795461e-002 
-2.802469e-002 
-2.798834e-002 
-2.794116e-002 
-2.800862e-002 
-2.805179e-002 
-2.800340e-002 
-2.796820e-002 
-2.804321e-002 
-2.803334e-002 
-2.795354e-002 
-2.798832e-002 
-2.806959e-002 
-2.802233e-002 
-2.792516e-002 
-2.798795e-002 
-2.801966e-002 
-2.793061e-002 
-2.795226e-002 
-2.801602e-002 
-2.797655e-002 
-2.791490e-002 
-2.797020e-002 
-2.802556e-002 
-2.795305e-002 
-2.793841e-002 
-2.799747e-002 
-2.801217e-002 
-2.793596e-002 
-2.792620e-002 
-2.800887e-002 
-2.794341e-002 
-2.786869e-002 
-2.794281e-002 
-2.795032e-002 
-2.787272e-002 
-2.787986e-002 
-2.796605e-002 
-2.795157e-002 
-2.788472e-002 
-2.791825e-002 
-2.798455e-002 
-2.795758e-002 
-2.789361e-002 
-2.799854e-002 
-2.802709e-002 
-2.794205e-002 
-2.799596e-002 
-2.806040e-002 
-2.802907e-002 
-2.798864e-002 
-2.806315e-002 
-2.810761e-002 
-2.805746e-002 
-2.805522e-002 
-2.813577e-002 
-2.812950e-002 
-2.808878e-002 
-2.811754e-002 
-2.816708e-002 
-2.812075e-002 
-2.809894e-002 
-2.814055e-002 
-2.813123e-002 
-2.809235e-002 
-2.808612e-002 
-2.812445e-002 
-2.808793e-002 
-2.808798e-002 
-2.813157e-002 
-2.813301e-002 
-2.806628e-002 
-2.812031e-002 
-2.814531e-002 
-2.810014e-002 
-2.810499e-002 
-2.815791e-002 
-2.814486e-002 
-2.806692e-002 
-2.810220e-002 
-2.817855e-002 
-2.812830e-002 
-2.806625e-002 
-2.815238e-002 
-2.817362e-002 
-2.812021e-002 
-2.811436e-002 
-2.818153e-002 
-2.816864e-002 
-2.810414e-002 
-2.816541e-002 
-2.817985e-002 
-2.812433e-002 
-2.810762e-002 
-2.818275e-002 
-2.819268e-002 
-2.814440e-002 
-2.814746e-002 
-2.818254e-002 
-2.815790e-002 
-2.815166e-002 
-2.821881e-002 
-2.820040e-002 
-2.815549e-002 
-2.818819e-002 
-2.820761e-002 
-2.819081e-002 
-2.820491e-002 
-2.824167e-002 
-2.823840e-002 
-2.820268e-002 
-2.822552e-002 
-2.826378e-002 
-2.822118e-002 
-2.819791e-002 
-2.824904e-002 
-2.825805e-002 
-2.820085e-002 
-2.822652e-002 
-2.827745e-002 
-2.822975e-002 
-2.821986e-002 
-2.825233e-002 
-2.827299e-002 
-2.823233e-002 
-2.820677e-002 
-2.823435e-002 
-2.826303e-002 
-2.824076e-002 
-2.824412e-002 
-2.829083e-002 
-2.824800e-002 
-2.819718e-002 
-2.823962e-002 
-2.826953e-002 
-2.820534e-002 
-2.819025e-002 
-2.822839e-002 
-2.820677e-002 
-2.817672e-002 
-2.818731e-002 
-2.822388e-002 
-2.821737e-002 
-2.818093e-002 
-2.819914e-002 
-2.822465e-002 
-2.820815e-002 
-2.822314e-002 
-2.824614e-002 
-2.244632e-002 
1.110223e-016 
-4.923327e-002 
-4.311447e-002 
-4.603511e-002 
-4.952134e-002 
-4.726078e-002 
-4.547438e-002 
-4.741982e-002 
-4.840045e-002 
-4.629161e-002 
-4.622706e-002 
-4.822142e-002 
-4.743493e-002 
-4.577437e-002 
-4.689815e-002 
-4.772935e-002 
-4.637842e-002 
-4.589999e-002 
-4.734899e-002 
-4.703803e-002 
-4.574185e-002 
-4.671663e-002 
-4.748308e-002 
-4.632553e-002 
-4.623029e-002 
-4.723674e-002 
-4.666367e-002 
-4.596067e-002 
-4.677582e-002 
-4.678589e-002 
-4.579962e-002 
-4.615707e-002 
-4.677844e-002 
-4.612366e-002 
-4.608394e-002 
-4.684266e-002 
-4.643374e-002 
-4.595354e-002 
-4.683862e-002 
-4.695205e-002 
-4.597949e-002 
-4.630021e-002 
-4.726700e-002 
-4.656329e-002 
-4.585387e-002 
-4.695956e-002 
-4.704308e-002 
-4.573303e-002 
-4.628588e-002 
-4.736592e-002 
-4.598575e-002 
-4.581272e-002 
-4.756529e-002 
-4.657315e-002 
-4.553382e-002 
-4.698912e-002 
-4.727353e-002 
-4.587722e-002 
-4.622713e-002 
-4.726064e-002 
-4.647168e-002 
-4.575870e-002 
-4.674720e-002 
-4.718188e-002 
-4.597335e-002 
-4.608023e-002 
-4.718117e-002 
-4.654181e-002 
-4.577692e-002 
-4.692111e-002 
-4.702462e-002 
-4.569945e-002 
-4.626731e-002 
-4.712811e-002 
-4.619072e-002 
-4.585618e-002 
-4.689802e-002 
-4.676904e-002 
-4.608343e-002 
-4.652850e-002 
-4.678059e-002 
-4.625811e-002 
-4.627849e-002 
-4.668616e-002 
-4.639125e-002 
-4.603127e-002 
-4.629481e-002 
-4.624072e-002 
-4.585135e-002 
-4.585308e-002 
-4.584092e-002 
-4.584721e-002 
-4.597436e-002 
-4.583054e-002 
-4.563157e-002 
-4.576171e-002 
-4.563423e-002 
-4.503308e-002 
-4.554372e-002 
-4.635188e-002 
-4.546685e-002 
-4.447453e-002 
-4.515543e-002 
-4.594203e-002 
-4.548346e-002 
-4.507433e-002 
-4.507049e-002 
-4.513283e-002 
-4.529699e-002 
-4.505490e-002 
-4.444806e-002 
-4.463898e-002 
-4.525786e-002 
-4.466435e-002 
-4.395869e-002 
-4.483438e-002 
-4.524978e-002 
-4.385929e-002 
-4.358703e-002 
-4.485206e-002 
-4.476766e-002 
-4.351023e-002 
-4.356850e-002 
-4.494641e-002 
-4.382976e-002 
-4.280932e-002 
-4.436858e-002 
-4.427202e-002 
-4.264816e-002 
-4.322155e-002 
-4.449094e-002 
-4.306485e-002 
-4.225538e-002 
-4.390734e-002 
-4.386506e-002 
-4.212549e-002 
-4.269070e-002 
-4.395067e-002 
-4.272595e-002 
-4.184492e-002 
-4.323670e-002 
-4.355253e-002 
-4.214905e-002 
-4.239699e-002 
-4.352257e-002 
-4.276241e-002 
-4.200641e-002 
-4.285349e-002 
-4.303973e-002 
-4.209158e-002 
-4.212940e-002 
-4.288414e-002 
-4.243946e-002 
-4.200171e-002 
-4.249993e-002 
-4.262653e-002 
-4.213166e-002 
-4.225465e-002 
-4.276600e-002 
-4.262647e-002 
-4.226115e-002 
-4.253340e-002 
-4.289715e-002 
-4.268715e-002 
-4.248928e-002 
-4.281395e-002 
-4.300970e-002 
-4.260956e-002 
-4.250240e-002 
-4.287281e-002 
-4.289425e-002 
-4.251305e-002 
-4.251911e-002 
-4.273472e-002 
-4.260718e-002 
-4.237078e-002 
-4.255739e-002 
-4.277758e-002 
-4.254722e-002 
-4.237413e-002 
-4.260804e-002 
-4.282205e-002 
-4.274727e-002 
-4.273506e-002 
-4.278959e-002 
-4.289146e-002 
-4.296508e-002 
-4.297140e-002 
-4.302705e-002 
-4.316314e-002 
-4.324269e-002 
-4.321525e-002 
-4.329708e-002 
-4.338899e-002 
-4.348718e-002 
-4.342428e-002 
-4.337403e-002 
-4.350667e-002 
-4.360409e-002 
-4.357049e-002 
-4.362227e-002 
-4.367220e-002 
-4.365749e-002 
-4.380125e-002 
-4.397308e-002 
-4.397334e-002 
-4.397984e-002 
-4.413272e-002 
-4.418372e-002 
-4.414881e-002 
-4.433332e-002 
-4.461882e-002 
-4.449514e-002 
-4.432713e-002 
-4.454215e-002 
-4.482726e-002 
-4.465073e-002 
-4.452801e-002 
-4.481062e-002 
-4.487449e-002 
-4.452420e-002 
-4.456115e-002 
-4.489863e-002 
-4.487147e-002 
-4.453983e-002 
-4.475148e-002 
-4.494529e-002 
-4.473097e-002 
-4.462081e-002 
-4.489178e-002 
-4.505487e-002 
-4.484267e-002 
-4.477981e-002 
-4.497364e-002 
-4.496561e-002 
-4.487435e-002 
-4.499196e-002 
-4.496635e-002 
-4.473397e-002 
-4.472305e-002 
-4.489922e-002 
-4.476829e-002 
-4.459694e-002 
-4.476756e-002 
-4.494125e-002 
-4.477904e-002 
-4.468238e-002 
-4.483429e-002 
-4.480373e-002 
-4.452667e-002 
-4.464576e-002 
-4.467077e-002 
-4.443180e-002 
-4.437401e-002 
-4.470383e-002 
-4.463145e-002 
-4.440097e-002 
-4.456907e-002 
-4.478316e-002 
-4.454893e-002 
-4.436339e-002 
-4.461299e-002 
-4.468363e-002 
-4.428611e-002 
-4.425193e-002 
-4.458224e-002 
-4.443853e-002 
-4.421414e-002 
-4.439952e-002 
-4.462607e-002 
-4.436655e-002 
-4.429947e-002 
-4.454506e-002 
-4.460382e-002 
-4.427262e-002 
-4.418208e-002 
-4.443305e-002 
-4.434626e-002 
-4.419962e-002 
-4.434394e-002 
-4.456339e-002 
-4.444951e-002 
-4.432177e-002 
-4.439215e-002 
-4.450835e-002 
-4.451584e-002 
-4.442844e-002 
-4.440912e-002 
-4.447439e-002 
-4.455675e-002 
-4.455985e-002 
-4.451625e-002 
-4.464621e-002 
-4.484877e-002 
-4.461641e-002 
-4.444797e-002 
-4.477563e-002 
-4.492858e-002 
-4.462625e-002 
-4.456332e-002 
-4.488776e-002 
-4.484403e-002 
-4.439572e-002 
-4.438253e-002 
-4.474983e-002 
-4.465870e-002 
-4.429866e-002 
-4.448438e-002 
-4.476367e-002 
-4.436356e-002 
-4.419269e-002 
-4.461116e-002 
-4.462440e-002 
-4.424735e-002 
-4.441835e-002 
-4.485518e-002 
-4.453693e-002 
-4.403658e-002 
-4.433555e-002 
-4.471704e-002 
-4.410772e-002 
-4.380697e-002 
-4.444379e-002 
-4.443540e-002 
-4.372700e-002 
-4.394479e-002 
-4.465332e-002 
-4.450295e-002 
-4.406283e-002 
-4.437870e-002 
-4.467437e-002 
-4.429508e-002 
-4.425003e-002 
-4.473106e-002 
-4.474121e-002 
-4.430344e-002 
-4.438693e-002 
-4.466897e-002 
-4.441554e-002 
-4.428590e-002 
-4.467053e-002 
-4.467112e-002 
-4.442066e-002 
-4.461605e-002 
-4.488397e-002 
-4.471609e-002 
-4.466295e-002 
-4.507342e-002 
-4.512664e-002 
-4.478267e-002 
-4.491818e-002 
-4.529997e-002 
-4.503103e-002 
-4.467302e-002 
-4.500730e-002 
-4.528693e-002 
-4.495572e-002 
-4.472837e-002 
-4.498908e-002 
-4.516360e-002 
-4.500967e-002 
-4.502896e-002 
-4.509817e-002 
-4.493868e-002 
-4.491616e-002 
-4.515914e-002 
-4.518175e-002 
-4.500501e-002 
-4.508067e-002 
-4.537747e-002 
-4.519409e-002 
-4.487670e-002 
-4.502830e-002 
-4.533608e-002 
-4.522407e-002 
-4.494761e-002 
-4.491832e-002 
-4.510651e-002 
-4.495770e-002 
-4.473079e-002 
-4.488480e-002 
-4.498446e-002 
-4.484675e-002 
-4.485415e-002 
-4.491944e-002 
-4.487884e-002 
-4.483144e-002 
-4.493613e-002 
-4.494368e-002 
-4.486421e-002 
-4.480710e-002 
-4.488766e-002 
-4.482609e-002 
-4.463684e-002 
-4.460607e-002 
-4.465426e-002 
-4.453767e-002 
-4.449228e-002 
-4.464324e-002 
-4.467762e-002 
-4.458209e-002 
-4.466072e-002 
-4.478469e-002 
-4.471433e-002 
-4.473008e-002 
-4.483654e-002 
-4.497674e-002 
-4.500791e-002 
-4.497263e-002 
-4.512556e-002 
-4.523286e-002 
-4.522349e-002 
-4.526009e-002 
-4.543837e-002 
-4.547239e-002 
-4.547080e-002 
-4.557939e-002 
-4.570602e-002 
-4.573219e-002 
-4.575371e-002 
-4.577826e-002 
-4.589226e-002 
-4.587979e-002 
-4.575564e-002 
-4.580089e-002 
-4.582634e-002 
-4.571265e-002 
-4.565698e-002 
-4.572642e-002 
-4.567063e-002 
-4.562419e-002 
-4.582188e-002 
-4.586067e-002 
-4.565799e-002 
-4.562105e-002 
-4.583601e-002 
-4.591474e-002 
-4.580120e-002 
-4.567696e-002 
-4.582200e-002 
-4.579535e-002 
-4.568093e-002 
-4.578618e-002 
-4.588139e-002 
-4.577775e-002 
-4.573765e-002 
-4.590261e-002 
-4.596657e-002 
-4.590648e-002 
-4.589117e-002 
-4.593932e-002 
-4.595695e-002 
-4.599429e-002 
-4.597170e-002 
-4.587881e-002 
-4.588163e-002 
-4.606387e-002 
-4.613152e-002 
-4.598118e-002 
-4.600761e-002 
-4.615022e-002 
-4.604165e-002 
-4.599493e-002 
-4.632216e-002 
-4.636000e-002 
-4.600793e-002 
-4.608138e-002 
-4.642394e-002 
-4.630479e-002 
-4.609699e-002 
-4.637437e-002 
-4.664638e-002 
-4.638666e-002 
-4.617165e-002 
-4.652498e-002 
-4.665070e-002 
-4.624664e-002 
-4.624995e-002 
-4.665026e-002 
-4.653009e-002 
-4.622467e-002 
-4.651719e-002 
-4.675611e-002 
-4.645384e-002 
-4.631545e-002 
-4.665817e-002 
-4.669454e-002 
-4.627294e-002 
-4.626500e-002 
-4.672963e-002 
-4.674289e-002 
-4.641817e-002 
-4.653177e-002 
-4.675507e-002 
-4.645374e-002 
-4.627955e-002 
-4.661015e-002 
-4.659623e-002 
-4.619595e-002 
-4.619203e-002 
-4.645239e-002 
-4.632854e-002 
-4.608181e-002 
-4.627745e-002 
-4.651193e-002 
-4.628751e-002 
-4.615891e-002 
-4.639858e-002 
-4.645116e-002 
-4.633908e-002 
-4.639944e-002 
-4.639944e-002 
1.110223e-016 
-4.833331e-002 
-4.752947e-002 
-4.669835e-002 
-4.617071e-002 
-4.754724e-002 
-4.763701e-002 
-4.668594e-002 
-4.681044e-002 
-4.768143e-002 
-4.716607e-002 
-4.647504e-002 
-4.684848e-002 
-4.773093e-002 
-4.666371e-002 
-4.591849e-002 
-4.736755e-002 
-4.721900e-002 
-4.589690e-002 
-4.651192e-002 
-4.724209e-002 
-4.645394e-002 
-4.625788e-002 
-4.691967e-002 
-4.688874e-002 
-4.639699e-002 
-4.644208e-002 
-4.676787e-002 
-4.675391e-002 
-4.646097e-002 
-4.620573e-002 
-4.656566e-002 
-4.672467e-002 
-4.604171e-002 
-4.621461e-002 
-4.691042e-002 
-4.625726e-002 
-4.583734e-002 
-4.690720e-002 
-4.694851e-002 
-4.588263e-002 
-4.643370e-002 
-4.719428e-002 
-4.620955e-002 
-4.600954e-002 
-4.710538e-002 
-4.659878e-002 
-4.574824e-002 
-4.651907e-002 
-4.687888e-002 
-4.605471e-002 
-4.651972e-002 
-4.684549e-002 
-4.625661e-002 
-4.664180e-002 
-4.668366e-002 
-4.638723e-002 
-4.683613e-002 
-4.667687e-002 
-4.613013e-002 
-4.672452e-002 
-4.688062e-002 
-4.605241e-002 
-4.645080e-002 
-4.710774e-002 
-4.621542e-002 
-4.592542e-002 
-4.719085e-002 
-4.665764e-002 
-4.574687e-002 
-4.679558e-002 
-4.695659e-002 
-4.592945e-002 
-4.626898e-002 
-4.695022e-002 
-4.645419e-002 
-4.619198e-002 
-4.661339e-002 
-4.677648e-002 
-4.629596e-002 
-4.628372e-002 
-4.677175e-002 
-4.665263e-002 
-4.615507e-002 
-4.625710e-002 
-4.652753e-002 
-4.622856e-002 
-4.584589e-002 
-4.609753e-002 
-4.618696e-002 
-4.560579e-002 
-4.567462e-002 
-4.620210e-002 
-4.600805e-002 
-4.534693e-002 
-4.566032e-002 
-4.606524e-002 
-4.544132e-002 
-4.541125e-002 
-4.606552e-002 
-4.557500e-002 
-4.453124e-002 
-4.538115e-002 
-4.633818e-002 
-4.497780e-002 
-4.434934e-002 
-4.587431e-002 
-4.581166e-002 
-4.391439e-002 
-4.444416e-002 
-4.603335e-002 
-4.485543e-002 
-4.357322e-002 
-4.479841e-002 
-4.546010e-002 
-4.399604e-002 
-4.397222e-002 
-4.503482e-002 
-4.451764e-002 
-4.361095e-002 
-4.401673e-002 
-4.520937e-002 
-4.348314e-002 
-4.320419e-002 
-4.503289e-002 
-4.372739e-002 
-4.287519e-002 
-4.387183e-002 
-4.424660e-002 
-4.278146e-002 
-4.305310e-002 
-4.412137e-002 
-4.310623e-002 
-4.253156e-002 
-4.363456e-002 
-4.346625e-002 
-4.237283e-002 
-4.287334e-002 
-4.347977e-002 
-4.254226e-002 
-4.231284e-002 
-4.337778e-002 
-4.290740e-002 
-4.193737e-002 
-4.288079e-002 
-4.330659e-002 
-4.215883e-002 
-4.227206e-002 
-4.316380e-002 
-4.252631e-002 
-4.169459e-002 
-4.265999e-002 
-4.294974e-002 
-4.191076e-002 
-4.214243e-002 
-4.301204e-002 
-4.248616e-002 
-4.201501e-002 
-4.269390e-002 
-4.295548e-002 
-4.219241e-002 
-4.219918e-002 
-4.295932e-002 
-4.283417e-002 
-4.225754e-002 
-4.272264e-002 
-4.319489e-002 
-4.246914e-002 
-4.215386e-002 
-4.298609e-002 
-4.305277e-002 
-4.218793e-002 
-4.236918e-002 
-4.314634e-002 
-4.264440e-002 
-4.190523e-002 
-4.273238e-002 
-4.327147e-002 
-4.227624e-002 
-4.209691e-002 
-4.315804e-002 
-4.309549e-002 
-4.211901e-002 
-4.255622e-002 
-4.351112e-002 
-4.276691e-002 
-4.234708e-002 
-4.342059e-002 
-4.363821e-002 
-4.249989e-002 
-4.280178e-002 
-4.394616e-002 
-4.339087e-002 
-4.258973e-002 
-4.354942e-002 
-4.413873e-002 
-4.292887e-002 
-4.292709e-002 
-4.429636e-002 
-4.410308e-002 
-4.290910e-002 
-4.346443e-002 
-4.446608e-002 
-4.360634e-002 
-4.314199e-002 
-4.435496e-002 
-4.464751e-002 
-4.344270e-002 
-4.375432e-002 
-4.499054e-002 
-4.444469e-002 
-4.366518e-002 
-4.455730e-002 
-4.514582e-002 
-4.408870e-002 
-4.407753e-002 
-4.531269e-002 
-4.499657e-002 
-4.400589e-002 
-4.473605e-002 
-4.557844e-002 
-4.465102e-002 
-4.421402e-002 
-4.527371e-002 
-4.536725e-002 
-4.418437e-002 
-4.445614e-002 
-4.563305e-002 
-4.508177e-002 
-4.421401e-002 
-4.505270e-002 
-4.558988e-002 
-4.460568e-002 
-4.443937e-002 
-4.546410e-002 
-4.525757e-002 
-4.428183e-002 
-4.462099e-002 
-4.523754e-002 
-4.477245e-002 
-4.444065e-002 
-4.508910e-002 
-4.513153e-002 
-4.436097e-002 
-4.459630e-002 
-4.524522e-002 
-4.483620e-002 
-4.431275e-002 
-4.477214e-002 
-4.490808e-002 
-4.439874e-002 
-4.455765e-002 
-4.512093e-002 
-4.472330e-002 
-4.413966e-002 
-4.465883e-002 
-4.490231e-002 
-4.427367e-002 
-4.416822e-002 
-4.477625e-002 
-4.464140e-002 
-4.413512e-002 
-4.449753e-002 
-4.487173e-002 
-4.442394e-002 
-4.422503e-002 
-4.480792e-002 
-4.472571e-002 
-4.414237e-002 
-4.432069e-002 
-4.472185e-002 
-4.431241e-002 
-4.405641e-002 
-4.463964e-002 
-4.463481e-002 
-4.410463e-002 
-4.434539e-002 
-4.492126e-002 
-4.451245e-002 
-4.412815e-002 
-4.473301e-002 
-4.483838e-002 
-4.407191e-002 
-4.414383e-002 
-4.487953e-002 
-4.472000e-002 
-4.412212e-002 
-4.454397e-002 
-4.501675e-002 
-4.442895e-002 
-4.426526e-002 
-4.488934e-002 
-4.492523e-002 
-4.432920e-002 
-4.454378e-002 
-4.518000e-002 
-4.477972e-002 
-4.438375e-002 
-4.478548e-002 
-4.498095e-002 
-4.444773e-002 
-4.438332e-002 
-4.485659e-002 
-4.477512e-002 
-4.451922e-002 
-4.481719e-002 
-4.488383e-002 
-4.435584e-002 
-4.441990e-002 
-4.482852e-002 
-4.463516e-002 
-4.424545e-002 
-4.458471e-002 
-4.482562e-002 
-4.425500e-002 
-4.408517e-002 
-4.453308e-002 
-4.446025e-002 
-4.410856e-002 
-4.438153e-002 
-4.492302e-002 
-4.456598e-002 
-4.422602e-002 
-4.468599e-002 
-4.478523e-002 
-4.425784e-002 
-4.429781e-002 
-4.487390e-002 
-4.469795e-002 
-4.418122e-002 
-4.435508e-002 
-4.485421e-002 
-4.456311e-002 
-4.432486e-002 
-4.464253e-002 
-4.483717e-002 
-4.458043e-002 
-4.451930e-002 
-4.474123e-002 
-4.493286e-002 
-4.477961e-002 
-4.477924e-002 
-4.493379e-002 
-4.489096e-002 
-4.490676e-002 
-4.486266e-002 
-4.490952e-002 
-4.487872e-002 
-4.483182e-002 
-4.491081e-002 
-4.509000e-002 
-4.501289e-002 
-4.499159e-002 
-4.508808e-002 
-4.515502e-002 
-4.505705e-002 
-4.507939e-002 
-4.533094e-002 
-4.525753e-002 
-4.499058e-002 
-4.513287e-002 
-4.551055e-002 
-4.526637e-002 
-4.497421e-002 
-4.528821e-002 
-4.551148e-002 
-4.514892e-002 
-4.495014e-002 
-4.542730e-002 
-4.551720e-002 
-4.505737e-002 
-4.500481e-002 
-4.528938e-002 
-4.515680e-002 
-4.479847e-002 
-4.510555e-002 
-4.529320e-002 
-4.476131e-002 
-4.479055e-002 
-4.531004e-002 
-4.522184e-002 
-4.462510e-002 
-4.471302e-002 
-4.511662e-002 
-4.482541e-002 
-4.451130e-002 
-4.482164e-002 
-4.499378e-002 
-4.452665e-002 
-4.450348e-002 
-4.499860e-002 
-4.480159e-002 
-4.441569e-002 
-4.471646e-002 
-4.506311e-002 
-4.467068e-002 
-4.446824e-002 
-4.494761e-002 
-4.497866e-002 
-4.453072e-002 
-4.477245e-002 
-4.524963e-002 
-4.492811e-002 
-4.459323e-002 
-4.504368e-002 
-4.535068e-002 
-4.489828e-002 
-4.490587e-002 
-4.544487e-002 
-4.539730e-002 
-4.496259e-002 
-4.528317e-002 
-4.567139e-002 
-4.535562e-002 
-4.508428e-002 
-4.554563e-002 
-4.567913e-002 
-4.538167e-002 
-4.541758e-002 
-4.574789e-002 
-4.566429e-002 
-4.539316e-002 
-4.571631e-002 
-4.588418e-002 
-4.571059e-002 
-4.571850e-002 
-4.603369e-002 
-4.594403e-002 
-4.567679e-002 
-4.591294e-002 
-4.602614e-002 
-4.570928e-002 
-4.570545e-002 
-4.592542e-002 
-4.567933e-002 
-4.551471e-002 
-4.580241e-002 
-4.593381e-002 
-4.548804e-002 
-4.547724e-002 
-4.587831e-002 
-4.569477e-002 
-4.545078e-002 
-4.568742e-002 
-4.591584e-002 
-4.548066e-002 
-4.544805e-002 
-4.592088e-002 
-4.594159e-002 
-4.555159e-002 
-4.569302e-002 
-4.615813e-002 
-4.591961e-002 
-4.560998e-002 
-4.590357e-002 
-4.615002e-002 
-4.584942e-002 
-4.591638e-002 
-4.622162e-002 
-4.607941e-002 
-4.581760e-002 
-4.608553e-002 
-4.639951e-002 
-4.617700e-002 
-4.607617e-002 
-4.632631e-002 
-4.632067e-002 
-4.605400e-002 
-4.624290e-002 
-4.639469e-002 
-4.605334e-002 
-4.597889e-002 
-4.623668e-002 
-4.629264e-002 
-4.598969e-002 
-4.615578e-002 
-4.650241e-002 
-4.632464e-002 
-4.618185e-002 
-4.649027e-002 
-4.654609e-002 
-4.614745e-002 
-4.613153e-002 
-4.656598e-002 
-4.645786e-002 
-4.624941e-002 
-4.657919e-002 
-4.677808e-002 
-4.633285e-002 
-4.619053e-002 
-4.672873e-002 
-4.679285e-002 
-4.633747e-002 
-4.634028e-002 
-4.665618e-002 
-4.644936e-002 
-4.616144e-002 
-4.639285e-002 
-4.658202e-002 
-4.627369e-002 
-4.618036e-002 
-4.648388e-002 
-4.646487e-002 
-4.615466e-002 
-4.623418e-002 
-4.638631e-002 
-4.626398e-002 
-4.616186e-002 
-4.628816e-002 
-4.643978e-002 
-4.634455e-002 
-4.634455e-002 
1.110223e-016 
-4.620343e-002 
-4.944926e-002 
-4.707923e-002 
-4.538352e-002 
-4.746064e-002 
-4.846220e-002 
-4.667939e-002 
-4.596377e-002 
-4.768311e-002 
-4.783506e-002 
-4.624235e-002 
-4.652088e-002 
-4.768612e-002 
-4.691101e-002 
-4.621940e-002 
-4.703282e-002 
-4.719135e-002 
-4.613635e-002 
-4.639845e-002 
-4.729400e-002 
-4.648129e-002 
-4.609243e-002 
-4.710158e-002 
-4.683223e-002 
-4.602618e-002 
-4.680920e-002 
-4.719991e-002 
-4.617677e-002 
-4.640760e-002 
-4.727346e-002 
-4.640211e-002 
-4.582089e-002 
-4.697681e-002 
-4.680665e-002 
-4.561799e-002 
-4.634941e-002 
-4.714288e-002 
-4.606065e-002 
-4.601438e-002 
-4.729570e-002 
-4.670851e-002 
-4.546921e-002 
-4.661501e-002 
-4.743161e-002 
-4.590040e-002 
-4.570236e-002 
-4.737672e-002 
-4.652715e-002 
-4.525046e-002 
-4.711911e-002 
-4.748857e-002 
-4.545406e-002 
-4.636217e-002 
-4.774704e-002 
-4.609412e-002 
-4.586507e-002 
-4.743469e-002 
-4.696902e-002 
-4.574265e-002 
-4.645405e-002 
-4.736578e-002 
-4.642417e-002 
-4.584560e-002 
-4.691347e-002 
-4.707020e-002 
-4.585451e-002 
-4.629196e-002 
-4.720784e-002 
-4.620722e-002 
-4.594161e-002 
-4.707519e-002 
-4.667690e-002 
-4.582155e-002 
-4.658307e-002 
-4.699421e-002 
-4.626456e-002 
-4.625732e-002 
-4.679575e-002 
-4.647620e-002 
-4.627544e-002 
-4.668338e-002 
-4.661718e-002 
-4.628142e-002 
-4.636191e-002 
-4.628370e-002 
-4.613536e-002 
-4.628703e-002 
-4.610109e-002 
-4.568365e-002 
-4.590241e-002 
-4.611161e-002 
-4.569572e-002 
-4.578956e-002 
-4.610271e-002 
-4.557981e-002 
-4.542995e-002 
-4.621143e-002 
-4.587958e-002 
-4.483748e-002 
-4.547872e-002 
-4.633543e-002 
-4.519528e-002 
-4.464507e-002 
-4.566709e-002 
-4.577322e-002 
-4.467687e-002 
-4.472166e-002 
-4.523694e-002 
-4.500175e-002 
-4.480411e-002 
-4.486684e-002 
-4.454382e-002 
-4.429500e-002 
-4.483660e-002 
-4.463790e-002 
-4.406743e-002 
-4.445345e-002 
-4.473222e-002 
-4.401528e-002 
-4.360821e-002 
-4.446949e-002 
-4.467586e-002 
-4.312052e-002 
-4.366660e-002 
-4.471311e-002 
-4.320959e-002 
-4.277824e-002 
-4.418239e-002 
-4.391780e-002 
-4.244932e-002 
-4.331297e-002 
-4.420332e-002 
-4.278308e-002 
-4.230747e-002 
-4.383502e-002 
-4.337620e-002 
-4.197164e-002 
-4.285769e-002 
-4.383076e-002 
-4.247876e-002 
-4.185254e-002 
-4.337532e-002 
-4.309976e-002 
-4.177764e-002 
-4.242224e-002 
-4.343528e-002 
-4.240833e-002 
-4.173694e-002 
-4.292989e-002 
-4.290750e-002 
-4.190836e-002 
-4.213389e-002 
-4.291702e-002 
-4.252467e-002 
-4.202226e-002 
-4.260868e-002 
-4.279176e-002 
-4.223179e-002 
-4.223935e-002 
-4.271345e-002 
-4.258793e-002 
-4.211961e-002 
-4.254854e-002 
-4.308322e-002 
-4.263166e-002 
-4.222232e-002 
-4.273314e-002 
-4.288107e-002 
-4.233138e-002 
-4.239860e-002 
-4.292781e-002 
-4.271678e-002 
-4.216134e-002 
-4.263678e-002 
-4.302552e-002 
-4.257846e-002 
-4.232972e-002 