# vtk DataFile Version 2.0
2D-ADE data file 
ASCII
DATASET RECTILINEAR_GRID
DIMENSIONS 512 128 1
X_COORDINATES 512 int
0 1 2 3 4 5 6 7 8 9 10 11 12 13 14 15 16 17 18 19 20 21 22 23 24 25 26 27 28 29 30 31 32 33 34 35 36 37 38 39 40 41 42 43 44 45 46 47 48 49 50 51 52 53 54 55 56 57 58 59 60 61 62 63 64 65 66 67 68 69 70 71 72 73 74 75 76 77 78 79 80 81 82 83 84 85 86 87 88 89 90 91 92 93 94 95 96 97 98 99 100 101 102 103 104 105 106 107 108 109 110 111 112 113 114 115 116 117 118 119 120 121 122 123 124 125 126 127 128 129 130 131 132 133 134 135 136 137 138 139 140 141 142 143 144 145 146 147 148 149 150 151 152 153 154 155 156 157 158 159 160 161 162 163 164 165 166 167 168 169 170 171 172 173 174 175 176 177 178 179 180 181 182 183 184 185 186 187 188 189 190 191 192 193 194 195 196 197 198 199 200 201 202 203 204 205 206 207 208 209 210 211 212 213 214 215 216 217 218 219 220 221 222 223 224 225 226 227 228 229 230 231 232 233 234 235 236 237 238 239 240 241 242 243 244 245 246 247 248 249 250 251 252 253 254 255 256 257 258 259 260 261 262 263 264 265 266 267 268 269 270 271 272 273 274 275 276 277 278 279 280 281 282 283 284 285 286 287 288 289 290 291 292 293 294 295 296 297 298 299 300 301 302 303 304 305 306 307 308 309 310 311 312 313 314 315 316 317 318 319 320 321 322 323 324 325 326 327 328 329 330 331 332 333 334 335 336 337 338 339 340 341 342 343 344 345 346 347 348 349 350 351 352 353 354 355 356 357 358 359 360 361 362 363 364 365 366 367 368 369 370 371 372 373 374 375 376 377 378 379 380 381 382 383 384 385 386 387 388 389 390 391 392 393 394 395 396 397 398 399 400 401 402 403 404 405 406 407 408 409 410 411 412 413 414 415 416 417 418 419 420 421 422 423 424 425 426 427 428 429 430 431 432 433 434 435 436 437 438 439 440 441 442 443 444 445 446 447 448 449 450 451 452 453 454 455 456 457 458 459 460 461 462 463 464 465 466 467 468 469 470 471 472 473 474 475 476 477 478 479 480 481 482 483 484 485 486 487 488 489 490 491 492 493 494 495 496 497 498 499 500 501 502 503 504 505 506 507 508 509 510 511 
Y_COORDINATES 128 int
0 1 2 3 4 5 6 7 8 9 10 11 12 13 14 15 16 17 18 19 20 21 22 23 24 25 26 27 28 29 30 31 32 33 34 35 36 37 38 39 40 41 42 43 44 45 46 47 48 49 50 51 52 53 54 55 56 57 58 59 60 61 62 63 64 65 66 67 68 69 70 71 72 73 74 75 76 77 78 79 80 81 82 83 84 85 86 87 88 89 90 91 92 93 94 95 96 97 98 99 100 101 102 103 104 105 106 107 108 109 110 111 112 113 114 115 116 117 118 119 120 121 122 123 124 125 126 127 
Z_COORDINATES 1 int
0
POINT_DATA 65536 
SCALARS density double 1
LOOKUP_TABLE default
-2.158532e-002 
-3.157486e-002 
-2.812598e-002 
-2.770043e-002 
-2.784473e-002 
-2.774572e-002 
-2.786481e-002 
-2.784538e-002 
-2.779740e-002 
-2.774646e-002 
-2.788462e-002 
-2.780491e-002 
-2.780995e-002 
-2.774858e-002 
-2.782180e-002 
-2.788492e-002 
-2.771549e-002 
-2.777293e-002 
-2.789436e-002 
-2.774930e-002 
-2.775550e-002 
-2.785434e-002 
-2.778088e-002 
-2.776107e-002 
-2.783863e-002 
-2.775988e-002 
-2.777506e-002 
-2.785111e-002 
-2.774710e-002 
-2.773649e-002 
-2.788402e-002 
-2.777377e-002 
-2.767747e-002 
-2.786593e-002 
-2.785517e-002 
-2.764543e-002 
-2.778148e-002 
-2.792918e-002 
-2.768988e-002 
-2.766812e-002 
-2.792465e-002 
-2.780524e-002 
-2.761296e-002 
-2.780921e-002 
-2.792710e-002 
-2.764422e-002 
-2.769395e-002 
-2.792010e-002 
-2.776930e-002 
-2.759890e-002 
-2.788675e-002 
-2.781784e-002 
-2.761550e-002 
-2.781610e-002 
-2.780236e-002 
-2.769733e-002 
-2.774905e-002 
-2.776036e-002 
-2.775322e-002 
-2.775839e-002 
-2.771402e-002 
-2.772052e-002 
-2.783105e-002 
-2.770030e-002 
-2.767140e-002 
-2.780972e-002 
-2.778197e-002 
-2.761689e-002 
-2.776261e-002 
-2.780764e-002 
-2.764181e-002 
-2.770862e-002 
-2.775287e-002 
-2.771480e-002 
-2.766643e-002 
-2.770184e-002 
-2.771185e-002 
-2.770790e-002 
-2.764297e-002 
-2.768644e-002 
-2.772091e-002 
-2.765819e-002 
-2.762978e-002 
-2.770224e-002 
-2.769603e-002 
-2.759800e-002 
-2.763346e-002 
-2.769408e-002 
-2.764733e-002 
-2.752174e-002 
-2.768658e-002 
-2.768069e-002 
-2.753266e-002 
-2.755422e-002 
-2.771577e-002 
-2.757537e-002 
-2.744744e-002 
-2.767326e-002 
-2.764914e-002 
-2.744280e-002 
-2.748359e-002 
-2.772026e-002 
-2.751436e-002 
-2.734497e-002 
-2.763119e-002 
-2.764127e-002 
-2.731431e-002 
-2.739272e-002 
-2.766623e-002 
-2.746280e-002 
-2.726099e-002 
-2.748562e-002 
-2.755590e-002 
-2.732341e-002 
-2.732083e-002 
-2.748140e-002 
-2.739521e-002 
-2.729055e-002 
-2.737396e-002 
-2.737072e-002 
-2.734442e-002 
-2.719407e-002 
-2.740108e-002 
-2.737521e-002 
-2.705711e-002 
-2.741989e-002 
-2.733921e-002 
-2.708543e-002 
-2.724865e-002 
-2.739618e-002 
-2.714990e-002 
-2.710652e-002 
-2.733817e-002 
-2.726776e-002 
-2.706498e-002 
-2.719932e-002 
-2.731479e-002 
-2.712109e-002 
-2.711363e-002 
-2.725129e-002 
-2.723252e-002 
-2.706225e-002 
-2.717957e-002 
-2.727737e-002 
-2.711981e-002 
-2.709736e-002 
-2.724234e-002 
-2.721255e-002 
-2.708446e-002 
-2.716439e-002 
-2.725855e-002 
-2.712587e-002 
-2.712970e-002 
-2.724870e-002 
-2.719217e-002 
-2.712744e-002 
-2.720933e-002 
-2.722763e-002 
-2.716407e-002 
-2.716843e-002 
-2.722157e-002 
-2.721576e-002 
-2.717402e-002 
-2.717633e-002 
-2.722862e-002 
-2.720497e-002 
-2.715322e-002 
-2.719828e-002 
-2.723151e-002 
-2.717093e-002 
-2.715616e-002 
-2.722763e-002 
-2.720890e-002 
-2.714309e-002 
-2.717849e-002 
-2.723314e-002 
-2.717381e-002 
-2.711686e-002 
-2.719737e-002 
-2.722850e-002 
-2.710547e-002 
-2.712109e-002 
-2.723224e-002 
-2.715513e-002 
-2.705933e-002 
-2.715417e-002 
-2.719187e-002 
-2.706470e-002 
-2.703908e-002 
-2.713736e-002 
-2.709742e-002 
-2.697290e-002 
-2.701226e-002 
-2.708336e-002 
-2.699802e-002 
-2.693210e-002 
-2.704136e-002 
-2.707756e-002 
-2.698311e-002 
-2.702663e-002 
-2.716693e-002 
-2.713768e-002 
-2.708818e-002 
-2.722645e-002 
-2.731608e-002 
-2.723233e-002 
-2.726656e-002 
-2.743044e-002 
-2.741041e-002 
-2.732272e-002 
-2.744386e-002 
-2.753314e-002 
-2.741341e-002 
-2.739236e-002 
-2.753740e-002 
-2.752233e-002 
-2.737999e-002 
-2.744732e-002 
-2.756518e-002 
-2.745350e-002 
-2.737020e-002 
-2.749026e-002 
-2.752510e-002 
-2.738914e-002 
-2.739173e-002 
-2.750987e-002 
-2.745961e-002 
-2.736151e-002 
-2.743306e-002 
-2.748665e-002 
-2.739197e-002 
-2.736626e-002 
-2.744599e-002 
-2.743073e-002 
-2.736075e-002 
-2.738635e-002 
-2.742196e-002 
-2.737258e-002 
-2.734655e-002 
-2.738735e-002 
-2.739047e-002 
-2.733180e-002 
-2.732389e-002 
-2.737092e-002 
-2.734225e-002 
-2.727765e-002 
-2.730236e-002 
-2.733956e-002 
-2.727818e-002 
-2.725294e-002 
-2.730105e-002 
-2.727135e-002 
-2.720380e-002 
-2.722145e-002 
-2.724981e-002 
-2.719275e-002 
-2.715190e-002 
-2.719296e-002 
-2.718058e-002 
-2.710692e-002 
-2.711005e-002 
-2.714313e-002 
-2.708328e-002 
-2.702087e-002 
-2.707937e-002 
-2.709423e-002 
-2.697849e-002 
-2.697410e-002 
-2.705765e-002 
-2.699461e-002 
-2.690729e-002 
-2.698601e-002 
-2.701904e-002 
-2.690084e-002 
-2.692226e-002 
-2.702135e-002 
-2.694190e-002 
-2.689568e-002 
-2.700111e-002 
-2.700203e-002 
-2.691286e-002 
-2.696612e-002 
-2.704838e-002 
-2.698581e-002 
-2.695343e-002 
-2.703363e-002 
-2.706026e-002 
-2.699535e-002 
-2.701418e-002 
-2.710642e-002 
-2.711226e-002 
-2.709180e-002 
-2.717307e-002 
-2.725980e-002 
-2.724391e-002 
-2.724530e-002 
-2.733607e-002 
-2.737550e-002 
-2.734065e-002 
-2.737829e-002 
-2.747055e-002 
-2.746485e-002 
-2.742841e-002 
-2.748377e-002 
-2.751071e-002 
-2.742228e-002 
-2.739731e-002 
-2.743138e-002 
-2.737502e-002 
-2.732350e-002 
-2.734629e-002 
-2.734391e-002 
-2.729072e-002 
-2.726801e-002 
-2.729507e-002 
-2.728343e-002 
-2.724937e-002 
-2.726919e-002 
-2.729739e-002 
-2.727646e-002 
-2.729211e-002 
-2.732743e-002 
-2.731837e-002 
-2.728213e-002 
-2.729905e-002 
-2.729922e-002 
-2.726925e-002 
-2.725526e-002 
-2.726685e-002 
-2.724750e-002 
-2.721088e-002 
-2.719900e-002 
-2.719843e-002 
-2.714429e-002 
-2.710167e-002 
-2.708800e-002 
-2.704652e-002 
-2.697158e-002 
-2.692677e-002 
-2.689346e-002 
-2.681262e-002 
-2.672738e-002 
-2.668035e-002 
-2.661931e-002 
-2.651837e-002 
-2.644629e-002 
-2.640874e-002 
-2.633661e-002 
-2.625047e-002 
-2.622590e-002 
-2.621087e-002 
-2.614863e-002 
-2.612483e-002 
-2.616301e-002 
-2.616558e-002 
-2.615570e-002 
-2.621772e-002 
-2.629242e-002 
-2.632124e-002 
-2.638025e-002 
-2.649405e-002 
-2.657600e-002 
-2.663389e-002 
-2.674329e-002 
-2.686245e-002 
-2.692852e-002 
-2.700619e-002 
-2.712414e-002 
-2.720599e-002 
-2.725111e-002 
-2.733599e-002 
-2.742310e-002 
-2.745698e-002 
-2.749401e-002 
-2.756818e-002 
-2.760775e-002 
-2.761191e-002 
-2.764860e-002 
-2.769713e-002 
-2.769636e-002 
-2.769426e-002 
-2.773116e-002 
-2.774757e-002 
-2.772518e-002 
-2.773251e-002 
-2.776307e-002 
-2.775032e-002 
-2.772515e-002 
-2.774608e-002 
-2.775939e-002 
-2.772561e-002 
-2.771540e-002 
-2.774071e-002 
-2.773196e-002 
-2.769579e-002 
-2.770147e-002 
-2.772138e-002 
-2.769701e-002 
-2.766628e-002 
-2.768269e-002 
-2.769068e-002 
-2.765853e-002 
-2.764122e-002 
-2.765816e-002 
-2.765193e-002 
-2.762312e-002 
-2.761746e-002 
-2.762713e-002 
-2.761206e-002 
-2.759133e-002 
-2.759239e-002 
-2.759208e-002 
-2.757298e-002 
-2.756418e-002 
-2.756712e-002 
-2.755566e-002 
-2.753908e-002 
-2.754128e-002 
-2.754133e-002 
-2.752262e-002 
-2.751610e-002 
-2.752512e-002 
-2.751558e-002 
-2.749613e-002 
-2.750470e-002 
-2.751213e-002 
-2.748858e-002 
-2.747953e-002 
-2.750063e-002 
-2.748824e-002 
-2.746335e-002 
-2.747450e-002 
-2.748530e-002 
-2.745860e-002 
-2.744285e-002 
-2.746581e-002 
-2.745815e-002 
-2.742824e-002 
-2.743385e-002 
-2.744641e-002 
-2.742802e-002 
-2.741179e-002 
-2.742233e-002 
-2.742040e-002 
-2.740379e-002 
-2.740235e-002 
-2.740353e-002 
-2.739712e-002 
-2.738845e-002 
-2.738563e-002 
-2.738530e-002 
-2.738023e-002 
-2.737076e-002 
-2.736825e-002 
-2.736700e-002 
-2.736086e-002 
-2.735076e-002 
-2.735008e-002 
-2.734800e-002 
-2.733903e-002 
-2.733321e-002 
-2.733482e-002 
-2.732938e-002 
-2.731967e-002 
-2.731948e-002 
-2.732131e-002 
-2.730925e-002 
-2.730300e-002 
-2.730677e-002 
-2.730013e-002 
-2.728843e-002 
-2.729162e-002 
-2.728974e-002 
-2.727562e-002 
-2.727130e-002 
-2.727578e-002 
-2.726508e-002 
-2.724886e-002 
-2.725245e-002 
-2.725111e-002 
-2.723185e-002 
-2.722181e-002 
-2.722794e-002 
-2.721822e-002 
-2.719793e-002 
-2.719451e-002 
-2.719562e-002 
-2.717991e-002 
-2.716560e-002 
-2.716261e-002 
-2.715740e-002 
-2.714127e-002 
-2.712984e-002 
-2.712257e-002 
-2.711782e-002 
-2.709858e-002 
-2.708467e-002 
-2.708145e-002 
-2.706657e-002 
-2.704449e-002 
-2.703162e-002 
-2.703049e-002 
-2.699782e-002 
-2.697942e-002 
-2.697301e-002 
-2.695171e-002 
-2.691921e-002 
-2.690522e-002 
-2.689148e-002 
-2.685730e-002 
-2.684746e-002 
-2.118241e-002 
1.110223e-016 
-4.808590e-002 
-4.206724e-002 
-4.501556e-002 
-4.836390e-002 
-4.614383e-002 
-4.440275e-002 
-4.626107e-002 
-4.724755e-002 
-4.528133e-002 
-4.507837e-002 
-4.692920e-002 
-4.636770e-002 
-4.487547e-002 
-4.594145e-002 
-4.680858e-002 
-4.559538e-002 
-4.511002e-002 
-4.654085e-002 
-4.637723e-002 
-4.498931e-002 
-4.578053e-002 
-4.671920e-002 
-4.554141e-002 
-4.529395e-002 
-4.642140e-002 
-4.596949e-002 
-4.522651e-002 
-4.611251e-002 
-4.622466e-002 
-4.533514e-002 
-4.573692e-002 
-4.625046e-002 
-4.557662e-002 
-4.559477e-002 
-4.621308e-002 
-4.568340e-002 
-4.532056e-002 
-4.614008e-002 
-4.611912e-002 
-4.523486e-002 
-4.555664e-002 
-4.629831e-002 
-4.571865e-002 
-4.519704e-002 
-4.605501e-002 
-4.605260e-002 
-4.510693e-002 
-4.571184e-002 
-4.650090e-002 
-4.509919e-002 
-4.503590e-002 
-4.672084e-002 
-4.565711e-002 
-4.459725e-002 
-4.606757e-002 
-4.630046e-002 
-4.490521e-002 
-4.524936e-002 
-4.629837e-002 
-4.557490e-002 
-4.493194e-002 
-4.578221e-002 
-4.608368e-002 
-4.505612e-002 
-4.522700e-002 
-4.615643e-002 
-4.543247e-002 
-4.484685e-002 
-4.587081e-002 
-4.583336e-002 
-4.475167e-002 
-4.536042e-002 
-4.589652e-002 
-4.510443e-002 
-4.487995e-002 
-4.560409e-002 
-4.545509e-002 
-4.482698e-002 
-4.515134e-002 
-4.552520e-002 
-4.503254e-002 
-4.487782e-002 
-4.530154e-002 
-4.515152e-002 
-4.490054e-002 
-4.500197e-002 
-4.497585e-002 
-4.482594e-002 
-4.492878e-002 
-4.470074e-002 
-4.481283e-002 
-4.504545e-002 
-4.458779e-002 
-4.437794e-002 
-4.488505e-002 
-4.474358e-002 
-4.407946e-002 
-4.476313e-002 
-4.495189e-002 
-4.391073e-002 
-4.382920e-002 
-4.485282e-002 
-4.475717e-002 
-4.382630e-002 
-4.384027e-002 
-4.409731e-002 
-4.402065e-002 
-4.412044e-002 
-4.384669e-002 
-4.323533e-002 
-4.371317e-002 
-4.438626e-002 
-4.340512e-002 
-4.259565e-002 
-4.379562e-002 
-4.423567e-002 
-4.266744e-002 
-4.253882e-002 
-4.399274e-002 
-4.343320e-002 
-4.203025e-002 
-4.264606e-002 
-4.405384e-002 
-4.267207e-002 
-4.157371e-002 
-4.331526e-002 
-4.331544e-002 
-4.172239e-002 
-4.227981e-002 
-4.327272e-002 
-4.224025e-002 
-4.180969e-002 
-4.285575e-002 
-4.264941e-002 
-4.151675e-002 
-4.223937e-002 
-4.300267e-002 
-4.190578e-002 
-4.151149e-002 
-4.261545e-002 
-4.265167e-002 
-4.151246e-002 
-4.193612e-002 
-4.279942e-002 
-4.195647e-002 
-4.155342e-002 
-4.256728e-002 
-4.249007e-002 
-4.146020e-002 
-4.201104e-002 
-4.286959e-002 
-4.197592e-002 
-4.155361e-002 
-4.262742e-002 
-4.264950e-002 
-4.170201e-002 
-4.204917e-002 
-4.275166e-002 
-4.223499e-002 
-4.185052e-002 
-4.244901e-002 
-4.261861e-002 
-4.202762e-002 
-4.203176e-002 
-4.258829e-002 
-4.239349e-002 
-4.189855e-002 
-4.224051e-002 
-4.261080e-002 
-4.214013e-002 
-4.192091e-002 
-4.243378e-002 
-4.247372e-002 
-4.196898e-002 
-4.202784e-002 
-4.244947e-002 
-4.224251e-002 
-4.182636e-002 
-4.210890e-002 
-4.240831e-002 
-4.193777e-002 
-4.171888e-002 
-4.223723e-002 
-4.218754e-002 
-4.152838e-002 
-4.172607e-002 
-4.219043e-002 
-4.160483e-002 
-4.115137e-002 
-4.170858e-002 
-4.167822e-002 
-4.087528e-002 
-4.096692e-002 
-4.154458e-002 
-4.112453e-002 
-4.068340e-002 
-4.132802e-002 
-4.169866e-002 
-4.119276e-002 
-4.139443e-002 
-4.223577e-002 
-4.220362e-002 
-4.193796e-002 
-4.261972e-002 
-4.316566e-002 
-4.283973e-002 
-4.296604e-002 
-4.374739e-002 
-4.374481e-002 
-4.330368e-002 
-4.378087e-002 
-4.429032e-002 
-4.374943e-002 
-4.350277e-002 
-4.422921e-002 
-4.426103e-002 
-4.348282e-002 
-4.371088e-002 
-4.440543e-002 
-4.387147e-002 
-4.328902e-002 
-4.397386e-002 
-4.428430e-002 
-4.342195e-002 
-4.331857e-002 
-4.416130e-002 
-4.395614e-002 
-4.320774e-002 
-4.358655e-002 
-4.403622e-002 
-4.343457e-002 
-4.319346e-002 
-4.382422e-002 
-4.372217e-002 
-4.313740e-002 
-4.332943e-002 
-4.366811e-002 
-4.332016e-002 
-4.313215e-002 
-4.340159e-002 
-4.334472e-002 
-4.302902e-002 
-4.309312e-002 
-4.324648e-002 
-4.298012e-002 
-4.274201e-002 
-4.294825e-002 
-4.303438e-002 
-4.270937e-002 
-4.260577e-002 
-4.281211e-002 
-4.260118e-002 
-4.222082e-002 
-4.237876e-002 
-4.254104e-002 
-4.215595e-002 
-4.190268e-002 
-4.217277e-002 
-4.216550e-002 
-4.165224e-002 
-4.153728e-002 
-4.179730e-002 
-4.161384e-002 
-4.124567e-002 
-4.136608e-002 
-4.146960e-002 
-4.106178e-002 
-4.085594e-002 
-4.114825e-002 
-4.107749e-002 
-4.068740e-002 
-4.083214e-002 
-4.102448e-002 
-4.066218e-002 
-4.064928e-002 
-4.104171e-002 
-4.087046e-002 
-4.060509e-002 
-4.094101e-002 
-4.113040e-002 
-4.084486e-002 
-4.086955e-002 
-4.125048e-002 
-4.121882e-002 
-4.097101e-002 
-4.118754e-002 
-4.145447e-002 
-4.128470e-002 
-4.130718e-002 
-4.178026e-002 
-4.202112e-002 
-4.201549e-002 
-4.235932e-002 
-4.280163e-002 
-4.281025e-002 
-4.281318e-002 
-4.322442e-002 
-4.349018e-002 
-4.339489e-002 
-4.358724e-002 
-4.405138e-002 
-4.407650e-002 
-4.382324e-002 
-4.390166e-002 
-4.397799e-002 
-4.351089e-002 
-4.323560e-002 
-4.343654e-002 
-4.331140e-002 
-4.294932e-002 
-4.304612e-002 
-4.311967e-002 
-4.273761e-002 
-4.256931e-002 
-4.285891e-002 
-4.283960e-002 
-4.255786e-002 
-4.269060e-002 
-4.300053e-002 
-4.291089e-002 
-4.286287e-002 
-4.305272e-002 
-4.301747e-002 
-4.275014e-002 
-4.278661e-002 
-4.288949e-002 
-4.269825e-002 
-4.252083e-002 
-4.261611e-002 
-4.252476e-002 
-4.223158e-002 
-4.214087e-002 
-4.210687e-002 
-4.176753e-002 
-4.147336e-002 
-4.136742e-002 
-4.107925e-002 
-4.063091e-002 
-4.034606e-002 
-4.006959e-002 
-3.956821e-002 
-3.908390e-002 
-3.876313e-002 
-3.834102e-002 
-3.777928e-002 
-3.739790e-002 
-3.714098e-002 
-3.671484e-002 
-3.632155e-002 
-3.622032e-002 
-3.610452e-002 
-3.585772e-002 
-3.584443e-002 
-3.605633e-002 
-3.616728e-002 
-3.630416e-002 
-3.669086e-002 
-3.712062e-002 
-3.745473e-002 
-3.790813e-002 
-3.851690e-002 
-3.905221e-002 
-3.953971e-002 
-4.016093e-002 
-4.078150e-002 
-4.124362e-002 
-4.174213e-002 
-4.233609e-002 
-4.277379e-002 
-4.309337e-002 
-4.354606e-002 
-4.396061e-002 
-4.416057e-002 
-4.439381e-002 
-4.473928e-002 
-4.491853e-002 
-4.497804e-002 
-4.516952e-002 
-4.536255e-002 
-4.536441e-002 
-4.538966e-002 
-4.554574e-002 
-4.558110e-002 
-4.549942e-002 
-4.555946e-002 
-4.565792e-002 
-4.557263e-002 
-4.548185e-002 
-4.557061e-002 
-4.559962e-002 
-4.544060e-002 
-4.538957e-002 
-4.549219e-002 
-4.544016e-002 
-4.527166e-002 
-4.528181e-002 
-4.535081e-002 
-4.523494e-002 
-4.509643e-002 
-4.514118e-002 
-4.516158e-002 
-4.502517e-002 
-4.493665e-002 
-4.496918e-002 
-4.493325e-002 
-4.482681e-002 
-4.478559e-002 
-4.476920e-002 
-4.470124e-002 
-4.464892e-002 
-4.461600e-002 
-4.455354e-002 
-4.450337e-002 
-4.448538e-002 
-4.443127e-002 
-4.435766e-002 
-4.433643e-002 
-4.432877e-002 
-4.426758e-002 
-4.420892e-002 
-4.420739e-002 
-4.419556e-002 
-4.413374e-002 
-4.410020e-002 
-4.411894e-002 
-4.409427e-002 
-4.401648e-002 
-4.400089e-002 
-4.404180e-002 
-4.398252e-002 
-4.388966e-002 
-4.392571e-002 
-4.394097e-002 
-4.382327e-002 
-4.376017e-002 
-4.382926e-002 
-4.380475e-002 
-4.367758e-002 
-4.366572e-002 
-4.371268e-002 
-4.365941e-002 
-4.356963e-002 
-4.356249e-002 
-4.358716e-002 
-4.354710e-002 
-4.347440e-002 
-4.345653e-002 
-4.347674e-002 
-4.343318e-002 
-4.336109e-002 
-4.337563e-002 
-4.338638e-002 
-4.330008e-002 
-4.325498e-002 
-4.328921e-002 
-4.324365e-002 
-4.316615e-002 
-4.317638e-002 
-4.317352e-002 
-4.310765e-002 
-4.308169e-002 
-4.307439e-002 
-4.304315e-002 
-4.303234e-002 
-4.300966e-002 
-4.294759e-002 
-4.293674e-002 
-4.295436e-002 
-4.289029e-002 
-4.282137e-002 
-4.285081e-002 
-4.285645e-002 
-4.276209e-002 
-4.271300e-002 
-4.274764e-002 
-4.271016e-002 
-4.260782e-002 
-4.258835e-002 
-4.260502e-002 
-4.252608e-002 
-4.243325e-002 
-4.243422e-002 
-4.241747e-002 
-4.232637e-002 
-4.227000e-002 
-4.224829e-002 
-4.218196e-002 
-4.212375e-002 
-4.209025e-002 
-4.201921e-002 
-4.195121e-002 
-4.191256e-002 
-4.184097e-002 
-4.176253e-002 
-4.172948e-002 
-4.165288e-002 
-4.153853e-002 
-4.149165e-002 
-4.142945e-002 
-4.129342e-002 
-4.120919e-002 
-4.116727e-002 
-4.101219e-002 
-4.086615e-002 
-4.082388e-002 
-4.070220e-002 
-4.049654e-002 
-4.040023e-002 
-4.031825e-002 
-4.011189e-002 
-4.011189e-002 
1.110223e-016 
-4.734027e-002 
-4.655964e-002 
-4.560176e-002 
-4.503159e-002 
-4.651377e-002 
-4.651390e-002 
-4.545797e-002 
-4.569072e-002 
-4.661308e-002 
-4.596300e-002 
-4.538615e-002 
-4.591633e-002 
-4.667386e-002 
-4.570218e-002 
-4.510334e-002 
-4.653154e-002 
-4.636071e-002 
-4.511780e-002 
-4.588863e-002 
-4.647053e-002 
-4.557946e-002 
-4.559131e-002 
-4.621245e-002 
-4.589875e-002 
-4.568778e-002 
-4.583842e-002 
-4.584449e-002 
-4.599792e-002 
-4.589398e-002 
-4.550018e-002 
-4.592073e-002 
-4.620845e-002 
-4.549811e-002 
-4.557264e-002 
-4.635246e-002 
-4.574805e-002 
-4.517613e-002 
-4.621939e-002 
-4.624640e-002 
-4.508251e-002 
-4.561682e-002 
-4.649924e-002 
-4.557601e-002 
-4.512803e-002 
-4.623920e-002 
-4.600420e-002 
-4.516640e-002 
-4.578326e-002 
-4.616336e-002 
-4.530039e-002 
-4.560882e-002 
-4.598193e-002 
-4.542325e-002 
-4.570205e-002 
-4.568073e-002 
-4.544880e-002 
-4.581640e-002 
-4.560408e-002 
-4.523832e-002 
-4.585909e-002 
-4.587449e-002 
-4.497396e-002 
-4.556162e-002 
-4.617013e-002 
-4.517913e-002 
-4.498684e-002 
-4.612991e-002 
-4.558893e-002 
-4.478763e-002 
-4.563167e-002 
-4.579743e-002 
-4.507643e-002 
-4.505446e-002 
-4.562561e-002 
-4.545132e-002 
-4.492562e-002 
-4.510308e-002 
-4.560933e-002 
-4.515669e-002 
-4.474916e-002 
-4.532288e-002 
-4.544350e-002 
-4.475834e-002 
-4.486283e-002 
-4.541306e-002 
-4.502845e-002 
-4.451211e-002 
-4.492209e-002 
-4.534589e-002 
-4.455743e-002 
-4.444866e-002 
-4.516672e-002 
-4.497714e-002 
-4.407907e-002 
-4.458021e-002 
-4.526032e-002 
-4.430170e-002 
-4.400538e-002 
-4.496507e-002 
-4.474047e-002 
-4.347587e-002 
-4.439400e-002 
-4.533743e-002 
-4.363563e-002 
-4.312652e-002 
-4.496912e-002 
-4.466572e-002 
-4.269159e-002 
-4.353679e-002 
-4.502299e-002 
-4.360368e-002 
-4.252430e-002 
-4.396259e-002 
-4.431001e-002 
-4.281355e-002 
-4.288147e-002 
-4.396612e-002 
-4.340426e-002 
-4.253395e-002 
-4.293074e-002 
-4.386584e-002 
-4.241647e-002 
-4.223656e-002 
-4.391617e-002 
-4.241799e-002 
-4.191318e-002 
-4.332431e-002 
-4.292105e-002 
-4.161836e-002 
-4.253770e-002 
-4.327677e-002 
-4.201291e-002 
-4.171439e-002 
-4.290578e-002 
-4.258602e-002 
-4.158206e-002 
-4.224436e-002 
-4.273250e-002 
-4.197310e-002 
-4.166352e-002 
-4.261302e-002 
-4.241347e-002 
-4.154817e-002 
-4.209365e-002 
-4.269535e-002 
-4.196636e-002 
-4.162691e-002 
-4.244175e-002 
-4.242594e-002 
-4.167404e-002 
-4.208267e-002 
-4.254853e-002 
-4.205909e-002 
-4.195420e-002 
-4.243341e-002 
-4.233186e-002 
-4.201877e-002 
-4.220679e-002 
-4.244513e-002 
-4.226658e-002 
-4.207702e-002 
-4.233715e-002 
-4.251961e-002 
-4.213797e-002 
-4.207086e-002 
-4.245540e-002 
-4.237314e-002 
-4.202147e-002 
-4.225954e-002 
-4.248425e-002 
-4.211879e-002 
-4.204689e-002 
-4.243765e-002 
-4.234210e-002 
-4.193947e-002 
-4.211861e-002 
-4.248049e-002 
-4.206660e-002 
-4.176123e-002 
-4.230596e-002 
-4.232296e-002 
-4.168268e-002 
-4.184786e-002 
-4.235281e-002 
-4.191149e-002 
-4.143310e-002 
-4.186641e-002 
-4.205147e-002 
-4.136457e-002 
-4.112825e-002 
-4.163910e-002 
-4.147639e-002 
-4.077379e-002 
-4.096726e-002 
-4.149673e-002 
-4.106900e-002 
-4.077423e-002 
-4.150749e-002 
-4.179533e-002 
-4.130183e-002 
-4.164682e-002 
-4.250458e-002 
-4.234298e-002 
-4.211293e-002 
-4.295025e-002 
-4.340360e-002 
-4.288895e-002 
-4.315519e-002 
-4.403475e-002 
-4.378173e-002 
-4.328086e-002 
-4.394802e-002 
-4.439041e-002 
-4.365302e-002 
-4.349300e-002 
-4.434142e-002 
-4.424700e-002 
-4.340691e-002 
-4.373350e-002 
-4.440103e-002 
-4.384601e-002 
-4.328900e-002 
-4.392501e-002 
-4.419695e-002 
-4.346990e-002 
-4.341531e-002 
-4.404447e-002 
-4.382778e-002 
-4.325098e-002 
-4.356461e-002 
-4.394194e-002 
-4.346556e-002 
-4.324634e-002 
-4.363471e-002 
-4.364839e-002 
-4.322273e-002 
-4.332727e-002 
-4.357096e-002 
-4.328428e-002 
-4.305757e-002 
-4.336863e-002 
-4.341667e-002 
-4.293166e-002 
-4.286942e-002 
-4.321671e-002 
-4.303045e-002 
-4.265930e-002 
-4.288334e-002 
-4.303766e-002 
-4.259989e-002 
-4.242972e-002 
-4.270896e-002 
-4.260861e-002 
-4.217034e-002 
-4.222691e-002 
-4.244368e-002 
-4.210838e-002 
-4.185809e-002 
-4.208331e-002 
-4.194844e-002 
-4.150102e-002 
-4.156777e-002 
-4.180736e-002 
-4.138631e-002 
-4.106258e-002 
-4.142671e-002 
-4.137305e-002 
-4.075922e-002 
-4.087368e-002 
-4.128440e-002 
-4.083573e-002 
-4.050151e-002 
-4.102550e-002 
-4.097895e-002 
-4.043803e-002 
-4.077358e-002 
-4.118070e-002 
-4.069634e-002 
-4.058039e-002 
-4.114887e-002 
-4.113210e-002 
-4.072639e-002 
-4.102815e-002 
-4.139408e-002 
-4.110673e-002 
-4.096014e-002 
-4.139395e-002 
-4.152275e-002 
-4.124978e-002 
-4.148744e-002 
-4.212072e-002 
-4.224343e-002 
-4.215692e-002 
-4.259906e-002 
-4.306251e-002 
-4.293248e-002 
-4.292924e-002 
-4.344623e-002 
-4.368250e-002 
-4.348900e-002 
-4.374569e-002 
-4.420896e-002 
-4.401131e-002 
-4.362977e-002 
-4.384417e-002 
-4.380842e-002 
-4.322493e-002 
-4.308700e-002 
-4.337097e-002 
-4.321785e-002 
-4.284996e-002 
-4.283156e-002 
-4.292770e-002 
-4.272880e-002 
-4.263850e-002 
-4.277038e-002 
-4.276258e-002 
-4.263117e-002 
-4.282758e-002 
-4.302202e-002 
-4.301426e-002 
-4.290002e-002 
-4.298843e-002 
-4.288685e-002 
-4.275027e-002 
-4.274546e-002 
-4.281574e-002 
-4.259832e-002 
-4.249175e-002 
-4.251432e-002 
-4.240155e-002 
-4.206272e-002 
-4.199704e-002 
-4.188237e-002 
-4.153540e-002 
-4.120570e-002 
-4.108377e-002 
-4.076616e-002 
-4.024538e-002 
-3.992785e-002 
-3.966840e-002 
-3.911952e-002 
-3.856564e-002 
-3.828929e-002 
-3.791755e-002 
-3.730659e-002 
-3.693498e-002 
-3.680035e-002 
-3.640000e-002 
-3.597573e-002 
-3.599474e-002 
-3.601462e-002 
-3.576659e-002 
-3.583280e-002 
-3.622498e-002 
-3.637090e-002 
-3.649624e-002 
-3.703906e-002 
-3.758855e-002 
-3.787233e-002 
-3.836924e-002 
-3.912187e-002 
-3.962647e-002 
-4.002350e-002 
-4.071578e-002 
-4.137515e-002 
-4.172179e-002 
-4.217776e-002 
-4.282937e-002 
-4.320685e-002 
-4.341790e-002 
-4.387173e-002 
-4.429888e-002 
-4.440625e-002 
-4.458215e-002 
-4.495882e-002 
-4.510982e-002 
-4.507413e-002 
-4.527315e-002 
-4.550751e-002 
-4.543945e-002 
-4.540168e-002 
-4.561214e-002 
-4.566271e-002 
-4.549269e-002 
-4.554430e-002 
-4.570668e-002 
-4.558349e-002 
-4.543588e-002 
-4.557997e-002 
-4.562814e-002 
-4.540451e-002 
-4.534237e-002 
-4.550608e-002 
-4.544137e-002 
-4.520984e-002 
-4.523474e-002 
-4.535650e-002 
-4.519763e-002 
-4.502364e-002 
-4.511730e-002 
-4.515862e-002 
-4.495570e-002 
-4.485649e-002 
-4.495178e-002 
-4.491722e-002 
-4.474307e-002 
-4.471492e-002 
-4.476026e-002 
-4.466432e-002 
-4.456193e-002 
-4.458781e-002 
-4.455649e-002 
-4.444097e-002 
-4.442308e-002 
-4.444328e-002 
-4.433836e-002 
-4.425881e-002 
-4.430972e-002 
-4.428967e-002 
-4.415836e-002 
-4.415834e-002 
-4.423101e-002 
-4.412937e-002 
-4.402069e-002 
-4.411221e-002 
-4.412321e-002 
-4.395015e-002 
-4.393974e-002 
-4.405343e-002 
-4.396144e-002 
-4.381256e-002 
-4.389349e-002 
-4.394395e-002 
-4.376374e-002 
-4.370521e-002 
-4.382226e-002 
-4.377249e-002 
-4.362461e-002 
-4.364098e-002 
-4.369420e-002 
-4.360467e-002 
-4.354281e-002 
-4.356968e-002 
-4.355170e-002 
-4.349411e-002 
-4.347093e-002 
-4.346354e-002 
-4.343690e-002 
-4.339728e-002 
-4.336627e-002 
-4.335636e-002 
-4.333967e-002 
-4.329090e-002 
-4.325906e-002 
-4.325965e-002 
-4.322833e-002 
-4.317776e-002 
-4.317202e-002 
-4.315732e-002 
-4.310013e-002 
-4.308280e-002 
-4.309685e-002 
-4.303835e-002 
-4.297926e-002 
-4.300532e-002 
-4.298197e-002 
-4.289164e-002 
-4.289158e-002 
-4.291904e-002 
-4.283405e-002 
-4.277342e-002 
-4.281879e-002 
-4.278944e-002 
-4.267434e-002 
-4.267373e-002 
-4.271542e-002 
-4.261555e-002 
-4.252134e-002 
-4.256483e-002 
-4.254863e-002 
-4.241145e-002 
-4.236940e-002 
-4.241223e-002 
-4.233303e-002 
-4.221078e-002 
-4.220509e-002 
-4.219859e-002 
-4.209966e-002 
-4.201992e-002 
-4.200006e-002 
-4.194938e-002 
-4.185937e-002 
-4.178240e-002 
-4.175270e-002 
-4.169389e-002 
-4.157284e-002 
-4.149067e-002 
-4.146101e-002 
-4.136245e-002 
-4.121647e-002 
-4.117333e-002 
-4.110753e-002 
-4.093192e-002 
-4.080551e-002 
-4.075882e-002 
-4.061675e-002 
-4.042129e-002 
-4.032234e-002 
-4.021634e-002 
-4.021634e-002 
1.110223e-016 
-4.522079e-002 
-4.836011e-002 
-4.600147e-002 
-4.437587e-002 
-4.634168e-002 
-4.720473e-002 
-4.562710e-002 
-4.489162e-002 
-4.648867e-002 
-4.678022e-002 
-4.532518e-002 
-4.545420e-002 
-4.661235e-002 
-4.603927e-002 
-4.530990e-002 
-4.608127e-002 
-4.645266e-002 
-4.541848e-002 
-4.555083e-002 
-4.658107e-002 
-4.589507e-002 
-4.521035e-002 
-4.627506e-002 
-4.626086e-002 
-4.526866e-002 
-4.592103e-002 
-4.647836e-002 
-4.540252e-002 
-4.555050e-002 
-4.652864e-002 
-4.576971e-002 
-4.526529e-002 
-4.633009e-002 
-4.612729e-002 
-4.516039e-002 
-4.594935e-002 
-4.652084e-002 
-4.532364e-002 
-4.532578e-002 
-4.650811e-002 
-4.603412e-002 
-4.495574e-002 
-4.590892e-002 
-4.656250e-002 
-4.527701e-002 
-4.516265e-002 
-4.663667e-002 
-4.586616e-002 
-4.466501e-002 
-4.626572e-002 
-4.651772e-002 
-4.460025e-002 
-4.552119e-002 
-4.679405e-002 
-4.518670e-002 
-4.485479e-002 
-4.637551e-002 
-4.597527e-002 
-4.488433e-002 
-4.547925e-002 
-4.626603e-002 
-4.545167e-002 
-4.496239e-002 
-4.587167e-002 
-4.595185e-002 
-4.494355e-002 
-4.536646e-002 
-4.605999e-002 
-4.516005e-002 
-4.502274e-002 
-4.581615e-002 
-4.546413e-002 
-4.491081e-002 
-4.542176e-002 
-4.552401e-002 
-4.506012e-002 
-4.507317e-002 
-4.540888e-002 
-4.519795e-002 
-4.494918e-002 
-4.521621e-002 
-4.516170e-002 
-4.500893e-002 
-4.506947e-002 
-4.500919e-002 
-4.483053e-002 
-4.515649e-002 
-4.487847e-002 
-4.456439e-002 
-4.507885e-002 
-4.501213e-002 
-4.427368e-002 
-4.474509e-002 
-4.526155e-002 
-4.426067e-002 
-4.418874e-002 
-4.521905e-002 
-4.457360e-002 
-4.366827e-002 
-4.474272e-002 
-4.508649e-002 
-4.371510e-002 
-4.370207e-002 
-4.489720e-002 
-4.443056e-002 
-4.337764e-002 
-4.393058e-002 
-4.435916e-002 
-4.370631e-002 
-4.357130e-002 
-4.386999e-002 
-4.352634e-002 
-4.347272e-002 
-4.384831e-002 
-4.332940e-002 
-4.285344e-002 
-4.358008e-002 
-4.374473e-002 
-4.263843e-002 
-4.260340e-002 
-4.362998e-002 
-4.334037e-002 
-4.184010e-002 
-4.280488e-002 
-4.383242e-002 
-4.212375e-002 
-4.181169e-002 
-4.337734e-002 
-4.295709e-002 
-4.156268e-002 
-4.240008e-002 
-4.314408e-002 
-4.208704e-002 
-4.165549e-002 
-4.289721e-002 
-4.250658e-002 
-4.146734e-002 
-4.224270e-002 
-4.286725e-002 
-4.185385e-002 
-4.150594e-002 
-4.269454e-002 
-4.250954e-002 
-4.139232e-002 
-4.211105e-002 
-4.275842e-002 
-4.181870e-002 
-4.160537e-002 
-4.263178e-002 
-4.232806e-002 
-4.146646e-002 
-4.223337e-002 
-4.280024e-002 
-4.187050e-002 
-4.177101e-002 
-4.266626e-002 
-4.242250e-002 
-4.174722e-002 
-4.221922e-002 
-4.267221e-002 
-4.221733e-002 
-4.195716e-002 
-4.243175e-002 
-4.251846e-002 
-4.202129e-002 
-4.206741e-002 
-4.258469e-002 
-4.237291e-002 
-4.191459e-002 
-4.225110e-002 
-4.256360e-002 
-4.211819e-002 
-4.195433e-002 
-4.241409e-002 
-4.248298e-002 
-4.190753e-002 
-4.192050e-002 