# vtk DataFile Version 2.0
2D-ADE data file 
ASCII
DATASET RECTILINEAR_GRID
DIMENSIONS 512 128 1
X_COORDINATES 512 int
0 1 2 3 4 5 6 7 8 9 10 11 12 13 14 15 16 17 18 19 20 21 22 23 24 25 26 27 28 29 30 31 32 33 34 35 36 37 38 39 40 41 42 43 44 45 46 47 48 49 50 51 52 53 54 55 56 57 58 59 60 61 62 63 64 65 66 67 68 69 70 71 72 73 74 75 76 77 78 79 80 81 82 83 84 85 86 87 88 89 90 91 92 93 94 95 96 97 98 99 100 101 102 103 104 105 106 107 108 109 110 111 112 113 114 115 116 117 118 119 120 121 122 123 124 125 126 127 128 129 130 131 132 133 134 135 136 137 138 139 140 141 142 143 144 145 146 147 148 149 150 151 152 153 154 155 156 157 158 159 160 161 162 163 164 165 166 167 168 169 170 171 172 173 174 175 176 177 178 179 180 181 182 183 184 185 186 187 188 189 190 191 192 193 194 195 196 197 198 199 200 201 202 203 204 205 206 207 208 209 210 211 212 213 214 215 216 217 218 219 220 221 222 223 224 225 226 227 228 229 230 231 232 233 234 235 236 237 238 239 240 241 242 243 244 245 246 247 248 249 250 251 252 253 254 255 256 257 258 259 260 261 262 263 264 265 266 267 268 269 270 271 272 273 274 275 276 277 278 279 280 281 282 283 284 285 286 287 288 289 290 291 292 293 294 295 296 297 298 299 300 301 302 303 304 305 306 307 308 309 310 311 312 313 314 315 316 317 318 319 320 321 322 323 324 325 326 327 328 329 330 331 332 333 334 335 336 337 338 339 340 341 342 343 344 345 346 347 348 349 350 351 352 353 354 355 356 357 358 359 360 361 362 363 364 365 366 367 368 369 370 371 372 373 374 375 376 377 378 379 380 381 382 383 384 385 386 387 388 389 390 391 392 393 394 395 396 397 398 399 400 401 402 403 404 405 406 407 408 409 410 411 412 413 414 415 416 417 418 419 420 421 422 423 424 425 426 427 428 429 430 431 432 433 434 435 436 437 438 439 440 441 442 443 444 445 446 447 448 449 450 451 452 453 454 455 456 457 458 459 460 461 462 463 464 465 466 467 468 469 470 471 472 473 474 475 476 477 478 479 480 481 482 483 484 485 486 487 488 489 490 491 492 493 494 495 496 497 498 499 500 501 502 503 504 505 506 507 508 509 510 511 
Y_COORDINATES 128 int
0 1 2 3 4 5 6 7 8 9 10 11 12 13 14 15 16 17 18 19 20 21 22 23 24 25 26 27 28 29 30 31 32 33 34 35 36 37 38 39 40 41 42 43 44 45 46 47 48 49 50 51 52 53 54 55 56 57 58 59 60 61 62 63 64 65 66 67 68 69 70 71 72 73 74 75 76 77 78 79 80 81 82 83 84 85 86 87 88 89 90 91 92 93 94 95 96 97 98 99 100 101 102 103 104 105 106 107 108 109 110 111 112 113 114 115 116 117 118 119 120 121 122 123 124 125 126 127 
Z_COORDINATES 1 int
0
POINT_DATA 65536 
SCALARS density double 1
LOOKUP_TABLE default
-2.142774e-002 
-3.135028e-002 
-2.790763e-002 
-2.745843e-002 
-2.760485e-002 
-2.753190e-002 
-2.764712e-002 
-2.760381e-002 
-2.757157e-002 
-2.754444e-002 
-2.765203e-002 
-2.757652e-002 
-2.761219e-002 
-2.751876e-002 
-2.759115e-002 
-2.766824e-002 
-2.750600e-002 
-2.755355e-002 
-2.766150e-002 
-2.755017e-002 
-2.754512e-002 
-2.760583e-002 
-2.757265e-002 
-2.756340e-002 
-2.757784e-002 
-2.753415e-002 
-2.757967e-002 
-2.760337e-002 
-2.750081e-002 
-2.752219e-002 
-2.765548e-002 
-2.754030e-002 
-2.744895e-002 
-2.764737e-002 
-2.764372e-002 
-2.741300e-002 
-2.755900e-002 
-2.772933e-002 
-2.748077e-002 
-2.744126e-002 
-2.772181e-002 
-2.760952e-002 
-2.738239e-002 
-2.760926e-002 
-2.773058e-002 
-2.740984e-002 
-2.747745e-002 
-2.773045e-002 
-2.754748e-002 
-2.736038e-002 
-2.768479e-002 
-2.761005e-002 
-2.739705e-002 
-2.759811e-002 
-2.759465e-002 
-2.749125e-002 
-2.753629e-002 
-2.754668e-002 
-2.754387e-002 
-2.755163e-002 
-2.748072e-002 
-2.751700e-002 
-2.760262e-002 
-2.746111e-002 
-2.743781e-002 
-2.758341e-002 
-2.754998e-002 
-2.734249e-002 
-2.754011e-002 
-2.760291e-002 
-2.736969e-002 
-2.745699e-002 
-2.760129e-002 
-2.744766e-002 
-2.740473e-002 
-2.754919e-002 
-2.747575e-002 
-2.743582e-002 
-2.744974e-002 
-2.748289e-002 
-2.744835e-002 
-2.741473e-002 
-2.742946e-002 
-2.745027e-002 
-2.743515e-002 
-2.738472e-002 
-2.739862e-002 
-2.744458e-002 
-2.740946e-002 
-2.731260e-002 
-2.741253e-002 
-2.745218e-002 
-2.731460e-002 
-2.732210e-002 
-2.745541e-002 
-2.734452e-002 
-2.721002e-002 
-2.740804e-002 
-2.742940e-002 
-2.719275e-002 
-2.726698e-002 
-2.745691e-002 
-2.724675e-002 
-2.709795e-002 
-2.737512e-002 
-2.739389e-002 
-2.706993e-002 
-2.712188e-002 
-2.740664e-002 
-2.721069e-002 
-2.700423e-002 
-2.721046e-002 
-2.730607e-002 
-2.704486e-002 
-2.700854e-002 
-2.725204e-002 
-2.709787e-002 
-2.695636e-002 
-2.710385e-002 
-2.711517e-002 
-2.701732e-002 
-2.684647e-002 
-2.711915e-002 
-2.705288e-002 
-2.669630e-002 
-2.708524e-002 
-2.699161e-002 
-2.676901e-002 
-2.682357e-002 
-2.701078e-002 
-2.682493e-002 
-2.669542e-002 
-2.692468e-002 
-2.686620e-002 
-2.666728e-002 
-2.673017e-002 
-2.688476e-002 
-2.668198e-002 
-2.662679e-002 
-2.676332e-002 
-2.675716e-002 
-2.656027e-002 
-2.665210e-002 
-2.672308e-002 
-2.658259e-002 
-2.651809e-002 
-2.668502e-002 
-2.664281e-002 
-2.649009e-002 
-2.656441e-002 
-2.665556e-002 
-2.650384e-002 
-2.646855e-002 
-2.662804e-002 
-2.653951e-002 
-2.641450e-002 
-2.654059e-002 
-2.655682e-002 
-2.644778e-002 
-2.648359e-002 
-2.654398e-002 
-2.649453e-002 
-2.646984e-002 
-2.652064e-002 
-2.653533e-002 
-2.649805e-002 
-2.647686e-002 
-2.652657e-002 
-2.653280e-002 
-2.649679e-002 
-2.652036e-002 
-2.657414e-002 
-2.654725e-002 
-2.653741e-002 
-2.656859e-002 
-2.657867e-002 
-2.654976e-002 
-2.654589e-002 
-2.658983e-002 
-2.659712e-002 
-2.653140e-002 
-2.655022e-002 
-2.662750e-002 
-2.656806e-002 
-2.648577e-002 
-2.658811e-002 
-2.663771e-002 
-2.650838e-002 
-2.651458e-002 
-2.666936e-002 
-2.661906e-002 
-2.648917e-002 
-2.660356e-002 
-2.670497e-002 
-2.655486e-002 
-2.651216e-002 
-2.667760e-002 
-2.665828e-002 
-2.650206e-002 
-2.658773e-002 
-2.671766e-002 
-2.659989e-002 
-2.653020e-002 
-2.668750e-002 
-2.670225e-002 
-2.653803e-002 
-2.657897e-002 
-2.670555e-002 
-2.658492e-002 
-2.646510e-002 
-2.658247e-002 
-2.658416e-002 
-2.639632e-002 
-2.639612e-002 
-2.648748e-002 
-2.638586e-002 
-2.628048e-002 
-2.637403e-002 
-2.642151e-002 
-2.632836e-002 
-2.634276e-002 
-2.648001e-002 
-2.650510e-002 
-2.646370e-002 
-2.657171e-002 
-2.671810e-002 
-2.672733e-002 
-2.675974e-002 
-2.693980e-002 
-2.704040e-002 
-2.702032e-002 
-2.711159e-002 
-2.726126e-002 
-2.724547e-002 
-2.721216e-002 
-2.731303e-002 
-2.736102e-002 
-2.728765e-002 
-2.727596e-002 
-2.735249e-002 
-2.733699e-002 
-2.725993e-002 
-2.728919e-002 
-2.734013e-002 
-2.727346e-002 
-2.722979e-002 
-2.730607e-002 
-2.730309e-002 
-2.721198e-002 
-2.722620e-002 
-2.729940e-002 
-2.723728e-002 
-2.717300e-002 
-2.725308e-002 
-2.728919e-002 
-2.718965e-002 
-2.719844e-002 
-2.730254e-002 
-2.726510e-002 
-2.717056e-002 
-2.723509e-002 
-2.730256e-002 
-2.721557e-002 
-2.717593e-002 
-2.726493e-002 
-2.726819e-002 
-2.718219e-002 
-2.720943e-002 
-2.728296e-002 
-2.723062e-002 
-2.717487e-002 
-2.724831e-002 
-2.727571e-002 
-2.719831e-002 
-2.720905e-002 
-2.728801e-002 
-2.725801e-002 
-2.719229e-002 
-2.725516e-002 
-2.729529e-002 
-2.722154e-002 
-2.720803e-002 
-2.728986e-002 
-2.726424e-002 
-2.718715e-002 
-2.723857e-002 
-2.729725e-002 
-2.721359e-002 
-2.719252e-002 
-2.729125e-002 
-2.728341e-002 
-2.719375e-002 
-2.723581e-002 
-2.731937e-002 
-2.725416e-002 
-2.720589e-002 
-2.729871e-002 
-2.732619e-002 
-2.723708e-002 
-2.725149e-002 
-2.734338e-002 
-2.729452e-002 
-2.722501e-002 
-2.730200e-002 
-2.733147e-002 
-2.724986e-002 
-2.725346e-002 
-2.733036e-002 
-2.729463e-002 
-2.723547e-002 
-2.730477e-002 
-2.734305e-002 
-2.725934e-002 
-2.725861e-002 
-2.734606e-002 
-2.731630e-002 
-2.724283e-002 
-2.729894e-002 
-2.735299e-002 
-2.727126e-002 
-2.723981e-002 
-2.732742e-002 
-2.731903e-002 
-2.722675e-002 
-2.725973e-002 
-2.733141e-002 
-2.726050e-002 
-2.720685e-002 
-2.728807e-002 
-2.730725e-002 
-2.721921e-002 
-2.721922e-002 
-2.730596e-002 
-2.728547e-002 
-2.720746e-002 
-2.724761e-002 
-2.731075e-002 
-2.726135e-002 
-2.721672e-002 
-2.727539e-002 
-2.729572e-002 
-2.723015e-002 
-2.722783e-002 
-2.728433e-002 
-2.725697e-002 
-2.721115e-002 
-2.724461e-002 
-2.727733e-002 
-2.723380e-002 
-2.722501e-002 
-2.726955e-002 
-2.727741e-002 
-2.723647e-002 
-2.725072e-002 
-2.729509e-002 
-2.727943e-002 
-2.724353e-002 
-2.727143e-002 
-2.730848e-002 
-2.728040e-002 
-2.725514e-002 
-2.728331e-002 
-2.730538e-002 
-2.728038e-002 
-2.726086e-002 
-2.727925e-002 
-2.730112e-002 
-2.728471e-002 
-2.726603e-002 
-2.729255e-002 
-2.730979e-002 
-2.729314e-002 
-2.729394e-002 
-2.730798e-002 
-2.731233e-002 
-2.730219e-002 
-2.729781e-002 
-2.731745e-002 
-2.731632e-002 
-2.729080e-002 
-2.729386e-002 
-2.731856e-002 
-2.730131e-002 
-2.728478e-002 
-2.731074e-002 
-2.731859e-002 
-2.729235e-002 
-2.728868e-002 
-2.731324e-002 
-2.731346e-002 
-2.729121e-002 
-2.729897e-002 
-2.731703e-002 
-2.729696e-002 
-2.729272e-002 
-2.731762e-002 
-2.730723e-002 
-2.727501e-002 
-2.729845e-002 
-2.732703e-002 
-2.728875e-002 
-2.726685e-002 
-2.731261e-002 
-2.731941e-002 
-2.726876e-002 
-2.727454e-002 
-2.732156e-002 
-2.729824e-002 
-2.726229e-002 
-2.729602e-002 
-2.732038e-002 
-2.727790e-002 
-2.727293e-002 
-2.731725e-002 
-2.730513e-002 
-2.727241e-002 
-2.729374e-002 
-2.732010e-002 
-2.729304e-002 
-2.727620e-002 
-2.731347e-002 
-2.731780e-002 
-2.727716e-002 
-2.728643e-002 
-2.731599e-002 
-2.729893e-002 
-2.727620e-002 
-2.729846e-002 
-2.732208e-002 
-2.729279e-002 
-2.729274e-002 
-2.732151e-002 
-2.731076e-002 
-2.728879e-002 
-2.730286e-002 
-2.731436e-002 
-2.729114e-002 
-2.727445e-002 
-2.729241e-002 
-2.729526e-002 
-2.726923e-002 
-2.727640e-002 
-2.728639e-002 
-2.726542e-002 
-2.726239e-002 
-2.728460e-002 
-2.727904e-002 
-2.725025e-002 
-2.726618e-002 
-2.728568e-002 
-2.725663e-002 
-2.723783e-002 
-2.727292e-002 
-2.726858e-002 
-2.723137e-002 
-2.724125e-002 
-2.727108e-002 
-2.724882e-002 
-2.722993e-002 
-2.725437e-002 
-2.726172e-002 
-2.723696e-002 
-2.723165e-002 
-2.725059e-002 
-2.724505e-002 
-2.722711e-002 
-2.723834e-002 
-2.724803e-002 
-2.723298e-002 
-2.723503e-002 
-2.724792e-002 
-2.723540e-002 
-2.723058e-002 
-2.725499e-002 
-2.725204e-002 
-2.723428e-002 
-2.724332e-002 
-2.725819e-002 
-2.724913e-002 
-2.723548e-002 
-2.725357e-002 
-2.725974e-002 
-2.724064e-002 
-2.723902e-002 
-2.726255e-002 
-2.725189e-002 
-2.722842e-002 
-2.725176e-002 
-2.726467e-002 
-2.723609e-002 
-2.723417e-002 
-2.726761e-002 
-2.726643e-002 
-2.724631e-002 
-2.725268e-002 
-2.728650e-002 
-2.727127e-002 
-2.724921e-002 
-2.727140e-002 
-2.729183e-002 
-2.726753e-002 
-2.726444e-002 
-2.729207e-002 
-2.729260e-002 
-2.727378e-002 
-2.727883e-002 
-2.730331e-002 
-2.730196e-002 
-2.728801e-002 
-2.729399e-002 
-2.732651e-002 
-2.156158e-002 
1.110223e-016 
-4.847137e-002 
-4.225170e-002 
-4.519737e-002 
-4.875133e-002 
-4.648957e-002 
-4.462449e-002 
-4.658456e-002 
-4.759624e-002 
-4.549603e-002 
-4.540991e-002 
-4.743192e-002 
-4.670902e-002 
-4.507944e-002 
-4.624987e-002 
-4.720551e-002 
-4.594353e-002 
-4.545504e-002 
-4.693413e-002 
-4.667396e-002 
-4.530825e-002 
-4.622668e-002 
-4.704415e-002 
-4.575284e-002 
-4.562185e-002 
-4.678069e-002 
-4.623984e-002 
-4.547436e-002 
-4.637566e-002 
-4.650999e-002 
-4.556207e-002 
-4.598336e-002 
-4.669735e-002 
-4.591785e-002 
-4.572302e-002 
-4.655087e-002 
-4.622457e-002 
-4.563364e-002 
-4.642194e-002 
-4.660002e-002 
-4.559427e-002 
-4.586999e-002 
-4.686948e-002 
-4.614156e-002 
-4.532938e-002 
-4.647577e-002 
-4.668346e-002 
-4.536083e-002 
-4.585103e-002 
-4.696221e-002 
-4.556767e-002 
-4.532041e-002 
-4.701990e-002 
-4.606463e-002 
-4.501995e-002 
-4.643632e-002 
-4.666692e-002 
-4.527597e-002 
-4.564470e-002 
-4.668933e-002 
-4.594648e-002 
-4.519935e-002 
-4.603043e-002 
-4.645845e-002 
-4.535328e-002 
-4.533475e-002 
-4.630434e-002 
-4.578879e-002 
-4.505915e-002 
-4.598325e-002 
-4.616286e-002 
-4.503285e-002 
-4.554020e-002 
-4.632237e-002 
-4.546786e-002 
-4.508043e-002 
-4.595600e-002 
-4.579605e-002 
-4.515504e-002 
-4.541887e-002 
-4.569358e-002 
-4.531849e-002 
-4.517834e-002 
-4.548196e-002 
-4.531033e-002 
-4.510576e-002 
-4.530614e-002 
-4.524751e-002 
-4.503195e-002 
-4.512973e-002 
-4.498722e-002 
-4.497016e-002 
-4.524718e-002 
-4.498232e-002 
-4.470691e-002 
-4.498796e-002 
-4.478921e-002 
-4.422868e-002 
-4.487446e-002 
-4.553450e-002 
-4.445381e-002 
-4.360718e-002 
-4.452716e-002 
-4.509628e-002 
-4.430458e-002 
-4.385213e-002 
-4.409422e-002 
-4.421332e-002 
-4.411529e-002 
-4.393190e-002 
-4.358412e-002 
-4.373729e-002 
-4.415853e-002 
-4.358933e-002 
-4.287615e-002 
-4.345218e-002 
-4.395117e-002 
-4.283949e-002 
-4.259163e-002 
-4.360004e-002 
-4.331831e-002 
-4.215292e-002 
-4.217892e-002 
-4.341773e-002 
-4.242496e-002 
-4.142473e-002 
-4.299869e-002 
-4.266039e-002 
-4.095125e-002 
-4.166546e-002 
-4.291535e-002 
-4.159245e-002 
-4.089073e-002 
-4.209164e-002 
-4.177042e-002 
-4.050910e-002 
-4.136529e-002 
-4.210851e-002 
-4.054954e-002 
-3.999595e-002 
-4.156596e-002 
-4.153079e-002 
-3.991913e-002 
-4.027206e-002 
-4.110751e-002 
-4.011541e-002 
-3.982220e-002 
-4.104946e-002 
-4.064750e-002 
-3.928444e-002 
-3.993044e-002 
-4.088582e-002 
-3.986988e-002 
-3.937583e-002 
-4.032232e-002 
-4.005666e-002 
-3.915641e-002 
-3.982929e-002 
-4.038480e-002 
-3.948915e-002 
-3.921675e-002 
-4.009164e-002 
-4.014325e-002 
-3.944239e-002 
-3.959821e-002 
-4.016898e-002 
-3.983190e-002 
-3.941555e-002 
-3.992818e-002 
-4.018434e-002 
-3.964360e-002 
-3.978288e-002 
-4.048856e-002 
-4.020865e-002 
-3.962974e-002 
-4.008421e-002 
-4.056751e-002 
-4.005265e-002 
-3.977905e-002 
-4.035289e-002 
-4.048068e-002 
-3.994184e-002 
-3.997185e-002 
-4.042500e-002 
-4.024760e-002 
-3.983839e-002 
-4.010671e-002 
-4.045322e-002 
-4.014943e-002 
-3.998903e-002 
-4.040349e-002 
-4.051069e-002 
-4.014836e-002 
-4.022995e-002 
-4.057922e-002 
-4.039335e-002 
-4.010566e-002 
-4.041958e-002 
-4.058287e-002 
-4.024929e-002 
-4.028776e-002 
-4.070063e-002 
-4.058137e-002 
-4.029196e-002 
-4.056333e-002 
-4.073690e-002 
-4.032513e-002 
-4.020319e-002 
-4.050280e-002 
-4.025057e-002 
-3.971834e-002 
-3.980793e-002 
-3.989930e-002 
-3.925335e-002 
-3.888199e-002 
-3.919937e-002 
-3.913318e-002 
-3.856926e-002 
-3.865920e-002 
-3.922952e-002 
-3.913113e-002 
-3.893466e-002 
-3.958697e-002 
-4.019775e-002 
-4.008551e-002 
-4.036725e-002 
-4.139700e-002 
-4.187573e-002 
-4.190731e-002 
-4.268245e-002 
-4.356742e-002 
-4.359900e-002 
-4.370112e-002 
-4.442025e-002 
-4.465549e-002 
-4.433405e-002 
-4.448822e-002 
-4.492281e-002 
-4.469597e-002 
-4.437206e-002 
-4.466473e-002 
-4.481607e-002 
-4.440153e-002 
-4.431051e-002 
-4.466015e-002 
-4.452785e-002 
-4.414164e-002 
-4.434200e-002 
-4.456624e-002 
-4.419234e-002 
-4.398073e-002 
-4.431527e-002 
-4.433036e-002 
-4.396205e-002 
-4.405056e-002 
-4.437146e-002 
-4.421258e-002 
-4.399322e-002 
-4.423990e-002 
-4.434796e-002 
-4.406003e-002 
-4.403406e-002 
-4.428497e-002 
-4.420025e-002 
-4.399359e-002 
-4.412405e-002 
-4.425413e-002 
-4.409624e-002 
-4.408469e-002 
-4.424275e-002 
-4.414233e-002 
-4.403574e-002 
-4.421783e-002 
-4.427242e-002 
-4.407724e-002 
-4.414011e-002 
-4.437779e-002 
-4.424159e-002 
-4.405675e-002 
-4.428093e-002 
-4.441197e-002 
-4.412248e-002 
-4.407159e-002 
-4.437168e-002 
-4.429905e-002 
-4.399693e-002 
-4.415102e-002 
-4.438212e-002 
-4.419050e-002 
-4.406793e-002 
-4.433381e-002 
-4.438745e-002 
-4.417071e-002 
-4.425712e-002 
-4.444363e-002 
-4.431747e-002 
-4.430382e-002 
-4.453971e-002 
-4.448335e-002 
-4.428727e-002 
-4.449425e-002 
-4.467724e-002 
-4.437050e-002 
-4.425727e-002 
-4.461219e-002 
-4.462863e-002 
-4.425594e-002 
-4.436112e-002 
-4.469752e-002 
-4.451711e-002 
-4.429474e-002 
-4.458538e-002 
-4.471088e-002 
-4.440447e-002 
-4.442808e-002 
-4.473665e-002 
-4.459596e-002 
-4.432220e-002 
-4.457390e-002 
-4.472311e-002 
-4.435862e-002 
-4.430378e-002 
-4.467511e-002 
-4.455186e-002 
-4.413865e-002 
-4.436057e-002 
-4.466855e-002 
-4.429137e-002 
-4.402851e-002 
-4.444862e-002 
-4.456249e-002 
-4.410256e-002 
-4.412063e-002 
-4.455611e-002 
-4.441248e-002 
-4.405397e-002 
-4.433197e-002 
-4.458617e-002 
-4.424431e-002 
-4.412690e-002 
-4.447067e-002 
-4.444070e-002 
-4.409333e-002 
-4.421527e-002 
-4.444318e-002 
-4.422218e-002 
-4.406419e-002 
-4.432206e-002 
-4.435917e-002 
-4.411601e-002 
-4.423166e-002 
-4.448214e-002 
-4.430543e-002 
-4.416234e-002 
-4.446550e-002 
-4.454162e-002 
-4.424156e-002 
-4.429942e-002 
-4.461262e-002 
-4.449783e-002 
-4.427591e-002 
-4.445582e-002 
-4.460086e-002 
-4.439478e-002 
-4.436320e-002 
-4.454842e-002 
-4.447279e-002 
-4.434545e-002 
-4.454980e-002 
-4.463633e-002 
-4.440458e-002 
-4.446194e-002 
-4.477076e-002 
-4.463815e-002 
-4.438573e-002 
-4.462120e-002 
-4.479842e-002 
-4.453398e-002 
-4.444476e-002 
-4.471837e-002 
-4.466985e-002 
-4.438236e-002 
-4.452363e-002 
-4.478348e-002 
-4.455728e-002 
-4.436505e-002 
-4.466188e-002 
-4.475255e-002 
-4.443746e-002 
-4.444785e-002 
-4.475133e-002 
-4.465400e-002 
-4.439263e-002 
-4.457272e-002 
-4.474803e-002 
-4.451359e-002 
-4.440991e-002 
-4.465498e-002 
-4.465813e-002 
-4.439485e-002 
-4.447953e-002 
-4.470946e-002 
-4.452784e-002 
-4.434880e-002 
-4.456487e-002 
-4.466462e-002 
-4.442550e-002 
-4.439262e-002 
-4.462257e-002 
-4.457283e-002 
-4.441051e-002 
-4.451542e-002 
-4.460980e-002 
-4.446835e-002 
-4.446316e-002 
-4.462109e-002 
-4.456311e-002 
-4.442061e-002 
-4.455968e-002 
-4.467193e-002 
-4.448839e-002 
-4.443700e-002 
-4.464383e-002 
-4.460782e-002 
-4.439557e-002 
-4.448706e-002 
-4.467297e-002 
-4.454273e-002 
-4.442494e-002 
-4.460609e-002 
-4.471338e-002 
-4.453199e-002 
-4.450887e-002 
-4.464405e-002 
-4.461954e-002 
-4.450464e-002 
-4.450829e-002 
-4.454749e-002 
-4.445758e-002 
-4.441833e-002 
-4.448739e-002 
-4.446805e-002 
-4.437267e-002 
-4.437715e-002 
-4.442181e-002 
-4.439191e-002 
-4.436097e-002 
-4.438782e-002 
-4.439255e-002 
-4.432796e-002 
-4.430792e-002 
-4.435056e-002 
-4.431907e-002 
-4.423390e-002 
-4.424239e-002 
-4.431841e-002 
-4.427649e-002 
-4.419502e-002 
-4.423408e-002 
-4.432631e-002 
-4.424380e-002 
-4.415936e-002 
-4.423431e-002 
-4.428979e-002 
-4.415768e-002 
-4.411812e-002 
-4.427289e-002 
-4.427265e-002 
-4.408735e-002 
-4.415825e-002 
-4.433554e-002 
-4.421762e-002 
-4.407191e-002 
-4.424831e-002 
-4.440473e-002 
-4.422473e-002 
-4.413122e-002 
-4.430683e-002 
-4.434724e-002 
-4.417973e-002 
-4.421415e-002 
-4.436268e-002 
-4.428369e-002 
-4.414818e-002 
-4.426879e-002 
-4.436333e-002 
-4.420469e-002 
-4.413376e-002 
-4.430579e-002 
-4.432232e-002 
-4.416825e-002 
-4.420982e-002 
-4.440888e-002 
-4.435932e-002 
-4.420900e-002 
-4.433161e-002 
-4.449636e-002 
-4.435525e-002 
-4.424344e-002 
-4.444185e-002 
-4.451997e-002 
-4.432633e-002 
-4.433335e-002 
-4.454286e-002 
-4.452991e-002 
-4.435648e-002 
-4.444473e-002 
-4.460966e-002 
-4.454982e-002 
-4.448729e-002 
-4.460862e-002 
-4.460862e-002 
1.110223e-016 
-4.753507e-002 
-4.677700e-002 
-4.598444e-002 
-4.536478e-002 
-4.673530e-002 
-4.681524e-002 
-4.584106e-002 
-4.595356e-002 
-4.686649e-002 
-4.640087e-002 
-4.575016e-002 
-4.615945e-002 
-4.706816e-002 
-4.610089e-002 
-4.541784e-002 
-4.686442e-002 
-4.676572e-002 
-4.551491e-002 
-4.615903e-002 
-4.682901e-002 
-4.604757e-002 
-4.581512e-002 
-4.640343e-002 
-4.637098e-002 
-4.599501e-002 
-4.596253e-002 
-4.619795e-002 
-4.632954e-002 
-4.602044e-002 
-4.575727e-002 
-4.630281e-002 
-4.650005e-002 
-4.571404e-002 
-4.588289e-002 
-4.675779e-002 
-4.608292e-002 
-4.549934e-002 
-4.658957e-002 
-4.661538e-002 
-4.541711e-002 
-4.602200e-002 
-4.689168e-002 
-4.581231e-002 
-4.547517e-002 
-4.671955e-002 
-4.630324e-002 
-4.537594e-002 
-4.615940e-002 
-4.654428e-002 
-4.554575e-002 
-4.589532e-002 
-4.632564e-002 
-4.575175e-002 
-4.599518e-002 
-4.598963e-002 
-4.577369e-002 
-4.614679e-002 
-4.592539e-002 
-4.556859e-002 
-4.618689e-002 
-4.607852e-002 
-4.526258e-002 
-4.586390e-002 
-4.637844e-002 
-4.533242e-002 
-4.519801e-002 
-4.645408e-002 
-4.569618e-002 
-4.486616e-002 
-4.606617e-002 
-4.610548e-002 
-4.505798e-002 
-4.554352e-002 
-4.611892e-002 
-4.540661e-002 
-4.527931e-002 
-4.569583e-002 
-4.571252e-002 
-4.523619e-002 
-4.523690e-002 
-4.560983e-002 
-4.545264e-002 
-4.504954e-002 
-4.519274e-002 
-4.551756e-002 
-4.522572e-002 
-4.485637e-002 
-4.512268e-002 
-4.544501e-002 
-4.488549e-002 
-4.468562e-002 
-4.534574e-002 
-4.523044e-002 
-4.439770e-002 
-4.470712e-002 
-4.528718e-002 
-4.452022e-002 
-4.435853e-002 
-4.528463e-002 
-4.471110e-002 
-4.360480e-002 
-4.462057e-002 
-4.535269e-002 
-4.372060e-002 
-4.335303e-002 
-4.503173e-002 
-4.465839e-002 
-4.283471e-002 
-4.366994e-002 
-4.500518e-002 
-4.366579e-002 
-4.263751e-002 
-4.407311e-002 
-4.432378e-002 
-4.255307e-002 
-4.293909e-002 
-4.404697e-002 
-4.314720e-002 
-4.228330e-002 
-4.290156e-002 
-4.376797e-002 
-4.193012e-002 
-4.184538e-002 
-4.377388e-002 
-4.216467e-002 
-4.136464e-002 
-4.253029e-002 
-4.257769e-002 
-4.107210e-002 
-4.166113e-002 
-4.274713e-002 
-4.139600e-002 
-4.070668e-002 
-4.188643e-002 
-4.192893e-002 
-4.060076e-002 
-4.096516e-002 
-4.162939e-002 
-4.083466e-002 
-4.035730e-002 
-4.139655e-002 
-4.110478e-002 
-3.989742e-002 
-4.018195e-002 
-4.104588e-002 
-4.038362e-002 
-3.994836e-002 
-4.050194e-002 
-4.024641e-002 
-3.949422e-002 
-4.018745e-002 
-4.069856e-002 
-3.965335e-002 
-3.938265e-002 
-4.018587e-002 
-4.001533e-002 
-3.959525e-002 
-3.980780e-002 
-3.988415e-002 
-3.961564e-002 
-3.973003e-002 
-3.995358e-002 
-3.983095e-002 
-3.960175e-002 
-3.971235e-002 
-3.998643e-002 
-3.983528e-002 
-3.956153e-002 
-3.980041e-002 
-4.008528e-002 
-3.992944e-002 
-3.986055e-002 
-4.004371e-002 
-4.004495e-002 
-3.987112e-002 
-4.002792e-002 
-4.027962e-002 
-4.007400e-002 
-3.990685e-002 
-4.031961e-002 
-4.036817e-002 
-3.989697e-002 
-4.010743e-002 
-4.064126e-002 
-4.015836e-002 
-3.980051e-002 
-4.052784e-002 
-4.062838e-002 
-3.978417e-002 
-3.998172e-002 
-4.079530e-002 
-4.028109e-002 
-3.969072e-002 
-4.048874e-002 
-4.086480e-002 
-4.000420e-002 
-4.003877e-002 
-4.094701e-002 
-4.063548e-002 
-3.992774e-002 
-4.056570e-002 
-4.106579e-002 
-4.023901e-002 
-4.001532e-002 
-4.087556e-002 
-4.068723e-002 
-3.981082e-002 
-4.018132e-002 
-4.068555e-002 
-3.982669e-002 
-3.932908e-002 
-3.992036e-002 
-3.964923e-002 
-3.873511e-002 
-3.882192e-002 
-3.922930e-002 
-3.879934e-002 
-3.843129e-002 
-3.897746e-002 
-3.930289e-002 
-3.900295e-002 
-3.925250e-002 
-4.003638e-002 
-4.029453e-002 
-4.028791e-002 
-4.103001e-002 
-4.193457e-002 
-4.212803e-002 
-4.248401e-002 
-4.344098e-002 
-4.387209e-002 
-4.373433e-002 
-4.414262e-002 
-4.471404e-002 
-4.452903e-002 
-4.431475e-002 
-4.471640e-002 
-4.488492e-002 
-4.446042e-002 
-4.437888e-002 
-4.472992e-002 
-4.461803e-002 
-4.421095e-002 
-4.437080e-002 
-4.462055e-002 
-4.427795e-002 
-4.412745e-002 
-4.450632e-002 
-4.446287e-002 
-4.404829e-002 
-4.424199e-002 
-4.455820e-002 
-4.418191e-002 
-4.392814e-002 
-4.434212e-002 
-4.436932e-002 
-4.382435e-002 
-4.392591e-002 
-4.438140e-002 
-4.409369e-002 
-4.369431e-002 
-4.415132e-002 
-4.445339e-002 
-4.396459e-002 
-4.389806e-002 
-4.444566e-002 
-4.439991e-002 
-4.394349e-002 
-4.419329e-002 
-4.456574e-002 
-4.418860e-002 
-4.395253e-002 
-4.440564e-002 
-4.446945e-002 
-4.398512e-002 
-4.408082e-002 
-4.449610e-002 
-4.420653e-002 
-4.387709e-002 
-4.429916e-002 
-4.443356e-002 
-4.394945e-002 
-4.399424e-002 
-4.449109e-002 
-4.425736e-002 
-4.386157e-002 
-4.429575e-002 
-4.459715e-002 
-4.410055e-002 
-4.405367e-002 
-4.464695e-002 
-4.451547e-002 
-4.401740e-002 
-4.440161e-002 
-4.483637e-002 
-4.432875e-002 
-4.407996e-002 
-4.467281e-002 
-4.470379e-002 
-4.413431e-002 
-4.430423e-002 
-4.479158e-002 
-4.445404e-002 
-4.415424e-002 
-4.465188e-002 
-4.477372e-002 
-4.426646e-002 
-4.440092e-002 
-4.487736e-002 
-4.457772e-002 
-4.425450e-002 
-4.470763e-002 
-4.485353e-002 
-4.430560e-002 
-4.434025e-002 
-4.486739e-002 
-4.463079e-002 
-4.416141e-002 
-4.453640e-002 
-4.482416e-002 
-4.431264e-002 
-4.418167e-002 
-4.470942e-002 
-4.459089e-002 
-4.404486e-002 
-4.431729e-002 
-4.477156e-002 
-4.434181e-002 
-4.397574e-002 
-4.450264e-002 
-4.470359e-002 
-4.412386e-002 
-4.409184e-002 
-4.464471e-002 
-4.453488e-002 
-4.404014e-002 
-4.428408e-002 
-4.465417e-002 
-4.433929e-002 
-4.408666e-002 
-4.447302e-002 
-4.458851e-002 
-4.421174e-002 
-4.422028e-002 
-4.457470e-002 
-4.441611e-002 
-4.413365e-002 
-4.437988e-002 
-4.458706e-002 
-4.424565e-002 
-4.412198e-002 
-4.451539e-002 
-4.454600e-002 
-4.418193e-002 
-4.427252e-002 
-4.466766e-002 
-4.450899e-002 
-4.419571e-002 
-4.441313e-002 
-4.469211e-002 
-4.445973e-002 
-4.425532e-002 
-4.453615e-002 
-4.469628e-002 
-4.446388e-002 
-4.441346e-002 
-4.466311e-002 
-4.469777e-002 
-4.453037e-002 
-4.454056e-002 
-4.468020e-002 
-4.467438e-002 
-4.458883e-002 
-4.461752e-002 
-4.466915e-002 
-4.463821e-002 
-4.462363e-002 
-4.464641e-002 
-4.463139e-002 
-4.458363e-002 
-4.458459e-002 
-4.462055e-002 
-4.462327e-002 
-4.459323e-002 
-4.457454e-002 
-4.462687e-002 
-4.463389e-002 
-4.458321e-002 
-4.461833e-002 
-4.464906e-002 
-4.460527e-002 
-4.459680e-002 
-4.465106e-002 
-4.460204e-002 
-4.452901e-002 
-4.458936e-002 
-4.463546e-002 
-4.446854e-002 
-4.442759e-002 
-4.462534e-002 
-4.464221e-002 
-4.441115e-002 
-4.445463e-002 
-4.470535e-002 
-4.462255e-002 
-4.441569e-002 
-4.454229e-002 
-4.470811e-002 
-4.452285e-002 
-4.443046e-002 
-4.460629e-002 
-4.460816e-002 
-4.445133e-002 
-4.453068e-002 
-4.468111e-002 
-4.455137e-002 
-4.443388e-002 
-4.457254e-002 
-4.465351e-002 
-4.446485e-002 
-4.445315e-002 
-4.460881e-002 
-4.458299e-002 
-4.447557e-002 
-4.456650e-002 
-4.464178e-002 
-4.453566e-002 
-4.449400e-002 
-4.462921e-002 
-4.463378e-002 
-4.448995e-002 
-4.453317e-002 
-4.467602e-002 
-4.461802e-002 
-4.449472e-002 
-4.455784e-002 
-4.458620e-002 
-4.449192e-002 
-4.447034e-002 
-4.454931e-002 
-4.447137e-002 
-4.442296e-002 
-4.450291e-002 
-4.445594e-002 
-4.431950e-002 
-4.440204e-002 
-4.451225e-002 
-4.435094e-002 
-4.420835e-002 
-4.439668e-002 
-4.447294e-002 
-4.426456e-002 
-4.422527e-002 
-4.440929e-002 
-4.431059e-002 
-4.414161e-002 
-4.426791e-002 
-4.438772e-002 
-4.420868e-002 
-4.415824e-002 
-4.437348e-002 
-4.435011e-002 
-4.417968e-002 
-4.426613e-002 
-4.437647e-002 
-4.426310e-002 
-4.421524e-002 
-4.436615e-002 
-4.436424e-002 
-4.423794e-002 
-4.431748e-002 
-4.440383e-002 
-4.428988e-002 
-4.427863e-002 
-4.445172e-002 
-4.442585e-002 
-4.425133e-002 
-4.434331e-002 
-4.449852e-002 
-4.436114e-002 
-4.424120e-002 
-4.439295e-002 
-4.440644e-002 
-4.421057e-002 
-4.424271e-002 
-4.440775e-002 
-4.431154e-002 
-4.414886e-002 
-4.428952e-002 
-4.442818e-002 
-4.424385e-002 
-4.417037e-002 
-4.439433e-002 
-4.442572e-002 
-4.422774e-002 
-4.430304e-002 
-4.449776e-002 
-4.435469e-002 
-4.419361e-002 
-4.436845e-002 
-4.449742e-002 
-4.431988e-002 
-4.426271e-002 
-4.444921e-002 
-4.452988e-002 
-4.436062e-002 
-4.438085e-002 
-4.455612e-002 
-4.457459e-002 
-4.445572e-002 
-4.445572e-002 
1.110223e-016 
-4.544537e-002 
-4.877149e-002 
-4.633798e-002 
-4.455533e-002 
-4.666541e-002 
-4.763470e-002 
-4.588170e-002 
-4.512671e-002 
-4.692353e-002 
-4.712691e-002 
-4.555044e-002 
-4.584144e-002 
-4.706862e-002 
-4.634281e-002 
-4.562483e-002 
-4.651274e-002 
-4.679712e-002 
-4.571861e-002 
-4.598887e-002 
-4.695884e-002 
-4.612142e-002 
-4.557589e-002 
-4.667543e-002 
-4.648885e-002 
-4.552893e-002 
-4.627647e-002 
-4.675645e-002 
-4.561384e-002 
-4.578978e-002 
-4.684715e-002 
-4.607293e-002 
-4.541760e-002 
-4.661241e-002 
-4.660546e-002 
-4.541891e-002 
-4.610586e-002 
-4.696893e-002 
-4.577139e-002 
-4.550167e-002 
-4.685013e-002 
-4.647834e-002 
-4.514077e-002 
-4.618769e-002 
-4.707176e-002 
-4.550730e-002 
-4.525660e-002 
-4.709244e-002 
-4.627043e-002 
-4.475502e-002 
-4.648914e-002 
-4.692208e-002 
-4.485981e-002 
-4.568337e-002 
-4.705750e-002 
-4.548903e-002 
-4.512780e-002 
-4.661369e-002 
-4.625730e-002 
-4.513547e-002 
-4.571723e-002 
-4.653793e-002 
-4.571620e-002 
-4.510805e-002 
-4.607290e-002 
-4.632108e-002 
-4.512663e-002 
-4.539176e-002 
-4.634958e-002 
-4.551104e-002 
-4.505091e-002 
-4.608094e-002 
-4.590216e-002 
-4.501683e-002 
-4.561433e-002 
-4.597601e-002 
-4.531404e-002 
-4.526719e-002 
-4.571405e-002 
-4.550888e-002 
-4.518737e-002 
-4.537896e-002 
-4.542911e-002 
-4.525310e-002 
-4.524942e-002 
-4.522407e-002 
-4.506981e-002 
-4.529129e-002 
-4.516304e-002 
-4.483537e-002 
-4.519969e-002 
-4.527104e-002 
-4.461157e-002 
-4.485243e-002 
-4.533574e-002 
-4.459091e-002 
-4.440141e-002 
-4.533680e-002 
-4.485027e-002 
-4.381538e-002 
-4.470394e-002 
-4.540230e-002 
-4.403562e-002 
-4.358781e-002 
-4.481351e-002 
-4.471814e-002 
-4.349350e-002 
-4.377908e-002 
-4.451055e-002 
-4.390701e-002 
-4.343466e-002 
-4.393690e-002 
-4.379226e-002 
-4.335366e-002 
-4.368760e-002 
-4.361088e-002 
-4.290982e-002 
-4.313727e-002 
-4.358733e-002 
-4.284781e-002 
-4.232329e-002 
-4.307934e-002 
-4.332097e-002 
-4.177292e-002 
-4.221895e-002 
-4.334007e-002 
-4.177213e-002 
-4.136008e-002 
-4.276643e-002 
-4.236380e-002 
-4.082073e-002 
-4.170667e-002 
-4.243046e-002 
-4.117553e-002 
-4.081752e-002 
-4.199575e-002 
-4.144867e-002 
-4.034207e-002 
-4.119605e-002 
-4.186470e-002 
-4.047375e-002 
-4.014521e-002 
-4.137170e-002 
-4.094825e-002 
-3.976800e-002 
-4.053347e-002 
-4.106987e-002 
-3.982656e-002 
-3.965385e-002 
-4.081103e-002 
-4.036555e-002 
-3.932702e-002 
-4.008886e-002 
-4.058321e-002 
-3.950372e-002 
-3.949682e-002 
-4.041737e-002 
-3.993724e-002 
-3.922709e-002 
-3.991075e-002 
-4.027203e-002 
-3.955203e-002 
-3.944387e-002 
-4.006666e-002 
-3.997776e-002 
-3.941755e-002 
-3.964777e-002 
-4.010597e-002 
-3.971327e-002 
-3.947267e-002 
-4.008895e-002 
-4.016351e-002 
-3.955826e-002 
-3.974687e-002 
-4.031246e-002 
-3.997923e-002 
-3.958324e-002 
-4.010728e-002 