# vtk DataFile Version 2.0
2D-ADE data file 
ASCII
DATASET RECTILINEAR_GRID
DIMENSIONS 512 128 1
X_COORDINATES 512 int
0 1 2 3 4 5 6 7 8 9 10 11 12 13 14 15 16 17 18 19 20 21 22 23 24 25 26 27 28 29 30 31 32 33 34 35 36 37 38 39 40 41 42 43 44 45 46 47 48 49 50 51 52 53 54 55 56 57 58 59 60 61 62 63 64 65 66 67 68 69 70 71 72 73 74 75 76 77 78 79 80 81 82 83 84 85 86 87 88 89 90 91 92 93 94 95 96 97 98 99 100 101 102 103 104 105 106 107 108 109 110 111 112 113 114 115 116 117 118 119 120 121 122 123 124 125 126 127 128 129 130 131 132 133 134 135 136 137 138 139 140 141 142 143 144 145 146 147 148 149 150 151 152 153 154 155 156 157 158 159 160 161 162 163 164 165 166 167 168 169 170 171 172 173 174 175 176 177 178 179 180 181 182 183 184 185 186 187 188 189 190 191 192 193 194 195 196 197 198 199 200 201 202 203 204 205 206 207 208 209 210 211 212 213 214 215 216 217 218 219 220 221 222 223 224 225 226 227 228 229 230 231 232 233 234 235 236 237 238 239 240 241 242 243 244 245 246 247 248 249 250 251 252 253 254 255 256 257 258 259 260 261 262 263 264 265 266 267 268 269 270 271 272 273 274 275 276 277 278 279 280 281 282 283 284 285 286 287 288 289 290 291 292 293 294 295 296 297 298 299 300 301 302 303 304 305 306 307 308 309 310 311 312 313 314 315 316 317 318 319 320 321 322 323 324 325 326 327 328 329 330 331 332 333 334 335 336 337 338 339 340 341 342 343 344 345 346 347 348 349 350 351 352 353 354 355 356 357 358 359 360 361 362 363 364 365 366 367 368 369 370 371 372 373 374 375 376 377 378 379 380 381 382 383 384 385 386 387 388 389 390 391 392 393 394 395 396 397 398 399 400 401 402 403 404 405 406 407 408 409 410 411 412 413 414 415 416 417 418 419 420 421 422 423 424 425 426 427 428 429 430 431 432 433 434 435 436 437 438 439 440 441 442 443 444 445 446 447 448 449 450 451 452 453 454 455 456 457 458 459 460 461 462 463 464 465 466 467 468 469 470 471 472 473 474 475 476 477 478 479 480 481 482 483 484 485 486 487 488 489 490 491 492 493 494 495 496 497 498 499 500 501 502 503 504 505 506 507 508 509 510 511 
Y_COORDINATES 128 int
0 1 2 3 4 5 6 7 8 9 10 11 12 13 14 15 16 17 18 19 20 21 22 23 24 25 26 27 28 29 30 31 32 33 34 35 36 37 38 39 40 41 42 43 44 45 46 47 48 49 50 51 52 53 54 55 56 57 58 59 60 61 62 63 64 65 66 67 68 69 70 71 72 73 74 75 76 77 78 79 80 81 82 83 84 85 86 87 88 89 90 91 92 93 94 95 96 97 98 99 100 101 102 103 104 105 106 107 108 109 110 111 112 113 114 115 116 117 118 119 120 121 122 123 124 125 126 127 
Z_COORDINATES 1 int
0
POINT_DATA 65536 
SCALARS density double 1
LOOKUP_TABLE default
-2.092730e-002 
-3.099276e-002 
-2.751044e-002 
-2.693589e-002 
-2.661676e-002 
-2.635205e-002 
-2.626422e-002 
-2.619515e-002 
-2.610440e-002 
-2.614978e-002 
-2.649596e-002 
-2.674051e-002 
-2.712481e-002 
-2.724662e-002 
-2.754323e-002 
-2.759309e-002 
-2.746615e-002 
-2.736968e-002 
-2.726269e-002 
-2.689612e-002 
-2.667958e-002 
-2.661447e-002 
-2.660620e-002 
-2.678435e-002 
-2.702318e-002 
-2.722622e-002 
-2.728117e-002 
-2.729147e-002 
-2.735226e-002 
-2.745171e-002 
-2.753670e-002 
-2.736927e-002 
-2.712652e-002 
-2.703675e-002 
-2.701001e-002 
-2.693026e-002 
-2.709731e-002 
-2.738877e-002 
-2.742154e-002 
-2.760781e-002 
-2.785920e-002 
-2.762722e-002 
-2.728329e-002 
-2.725528e-002 
-2.716727e-002 
-2.683771e-002 
-2.675548e-002 
-2.684428e-002 
-2.669524e-002 
-2.665307e-002 
-2.706799e-002 
-2.712629e-002 
-2.723607e-002 
-2.756741e-002 
-2.743377e-002 
-2.732120e-002 
-2.724752e-002 
-2.696953e-002 
-2.687531e-002 
-2.687664e-002 
-2.669316e-002 
-2.663186e-002 
-2.671494e-002 
-2.672515e-002 
-2.672287e-002 
-2.699239e-002 
-2.702480e-002 
-2.669328e-002 
-2.677453e-002 
-2.686101e-002 
-2.660512e-002 
-2.650355e-002 
-2.669014e-002 
-2.670705e-002 
-2.678713e-002 
-2.687973e-002 
-2.695576e-002 
-2.704146e-002 
-2.706423e-002 
-2.722182e-002 
-2.721860e-002 
-2.706718e-002 
-2.701592e-002 
-2.702880e-002 
-2.690392e-002 
-2.672189e-002 
-2.670684e-002 
-2.679010e-002 
-2.679196e-002 
-2.679501e-002 
-2.689725e-002 
-2.694906e-002 
-2.678403e-002 
-2.672305e-002 
-2.683541e-002 
-2.674073e-002 
-2.653135e-002 
-2.659131e-002 
-2.656936e-002 
-2.639212e-002 
-2.655121e-002 
-2.682511e-002 
-2.675459e-002 
-2.662264e-002 
-2.681973e-002 
-2.684208e-002 
-2.656472e-002 
-2.657605e-002 
-2.670799e-002 
-2.667530e-002 
-2.651098e-002 
-2.660206e-002 
-2.681577e-002 
-2.683123e-002 
-2.691502e-002 
-2.710883e-002 
-2.708202e-002 
-2.705808e-002 
-2.689311e-002 
-2.696261e-002 
-2.686021e-002 
-2.665280e-002 
-2.714209e-002 
-2.689908e-002 
-2.689124e-002 
-2.725431e-002 
-2.721122e-002 
-2.708568e-002 
-2.723716e-002 
-2.737161e-002 
-2.701620e-002 
-2.699489e-002 
-2.714058e-002 
-2.694805e-002 
-2.678097e-002 
-2.710605e-002 
-2.732762e-002 
-2.704055e-002 
-2.705198e-002 
-2.736585e-002 
-2.724464e-002 
-2.692885e-002 
-2.710404e-002 
-2.720094e-002 
-2.685133e-002 
-2.688086e-002 
-2.720808e-002 
-2.706528e-002 
-2.692610e-002 
-2.720828e-002 
-2.732643e-002 
-2.705215e-002 
-2.693629e-002 
-2.714199e-002 
-2.706584e-002 
-2.694172e-002 
-2.720103e-002 
-2.731973e-002 
-2.721937e-002 
-2.714023e-002 
-2.729108e-002 
-2.739906e-002 
-2.719761e-002 
-2.718137e-002 
-2.730550e-002 
-2.723471e-002 
-2.703144e-002 
-2.708160e-002 
-2.729420e-002 
-2.718689e-002 
-2.707920e-002 
-2.728599e-002 
-2.724086e-002 
-2.708719e-002 
-2.717264e-002 
-2.726474e-002 
-2.713151e-002 
-2.705374e-002 
-2.724917e-002 
-2.727535e-002 
-2.716477e-002 
-2.716460e-002 
-2.734530e-002 
-2.727001e-002 
-2.726491e-002 
-2.741275e-002 
-2.736341e-002 
-2.718094e-002 
-2.718082e-002 
-2.733965e-002 
-2.728563e-002 
-2.728420e-002 
-2.736783e-002 
-2.742947e-002 
-2.727979e-002 
-2.720359e-002 
-2.738235e-002 
-2.747225e-002 
-2.726526e-002 
-2.725639e-002 
-2.742480e-002 
-2.730526e-002 
-2.727263e-002 
-2.746187e-002 
-2.764493e-002 
-2.744886e-002 
-2.735509e-002 
-2.753424e-002 
-2.748831e-002 
-2.748315e-002 
-2.751170e-002 
-2.757139e-002 
-2.744238e-002 
-2.740000e-002 
-2.753005e-002 
-2.768055e-002 
-2.759919e-002 
-2.753870e-002 
-2.765429e-002 
-2.756661e-002 
-2.744174e-002 
-2.759151e-002 
-2.774750e-002 
-2.759532e-002 
-2.755311e-002 
-2.763583e-002 
-2.762544e-002 
-2.763452e-002 
-2.770194e-002 
-2.778431e-002 
-2.759879e-002 
-2.754736e-002 
-2.764672e-002 
-2.764082e-002 
-2.759140e-002 
-2.769202e-002 
-2.788515e-002 
-2.767352e-002 
-2.751222e-002 
-2.771026e-002 
-2.770077e-002 
-2.757261e-002 
-2.767038e-002 
-2.772715e-002 
-2.759429e-002 
-2.751229e-002 
-2.764108e-002 
-2.771545e-002 
-2.774239e-002 
-2.764898e-002 
-2.761884e-002 
-2.750927e-002 
-2.739728e-002 
-2.753311e-002 
-2.764637e-002 
-2.752767e-002 
-2.737169e-002 
-2.742739e-002 
-2.740536e-002 
-2.736515e-002 
-2.747838e-002 
-2.750913e-002 
-2.732118e-002 
-2.728643e-002 
-2.736373e-002 
-2.747018e-002 
-2.739342e-002 
-2.736576e-002 
-2.739161e-002 
-2.726736e-002 
-2.724335e-002 
-2.738293e-002 
-2.743727e-002 
-2.736662e-002 
-2.738207e-002 
-2.726810e-002 
-2.732112e-002 
-2.732094e-002 
-2.738938e-002 
-2.749913e-002 
-2.729212e-002 
-2.713595e-002 
-2.714503e-002 
-2.718701e-002 
-2.706070e-002 
-2.716507e-002 
-2.715617e-002 
-2.699488e-002 
-2.704370e-002 
-2.713439e-002 
-2.713426e-002 
-2.707271e-002 
-2.701577e-002 
-2.690578e-002 
-2.695700e-002 
-2.701283e-002 
-2.708137e-002 
-2.708676e-002 
-2.699922e-002 
-2.692562e-002 
-2.701201e-002 
-2.708931e-002 
-2.706925e-002 
-2.713861e-002 
-2.721068e-002 
-2.711127e-002 
-2.693896e-002 
-2.706758e-002 
-2.711258e-002 
-2.700470e-002 
-2.706391e-002 
-2.710254e-002 
-2.697944e-002 
-2.688559e-002 
-2.696684e-002 
-2.705797e-002 
-2.704986e-002 
-2.698434e-002 
-2.692718e-002 
-2.681479e-002 
-2.664447e-002 
-2.672624e-002 
-2.679528e-002 
-2.688432e-002 
-2.676590e-002 
-2.662015e-002 
-2.669684e-002 
-2.667329e-002 
-2.672513e-002 
-2.690413e-002 
-2.699020e-002 
-2.688065e-002 
-2.680218e-002 
-2.687395e-002 
-2.692496e-002 
-2.691781e-002 
-2.694120e-002 
-2.686148e-002 
-2.684279e-002 
-2.689915e-002 
-2.694311e-002 
-2.697076e-002 
-2.698155e-002 
-2.687775e-002 
-2.680876e-002 
-2.678747e-002 
-2.666954e-002 
-2.676111e-002 
-2.680011e-002 
-2.692569e-002 
-2.711291e-002 
-2.709597e-002 
-2.701331e-002 
-2.695958e-002 
-2.700630e-002 
-2.707987e-002 
-2.731927e-002 
-2.737822e-002 
-2.739817e-002 
-2.741914e-002 
-2.739004e-002 
-2.730375e-002 
-2.724819e-002 
-2.746350e-002 
-2.761842e-002 
-2.765713e-002 
-2.748817e-002 
-2.746183e-002 
-2.741191e-002 
-2.733282e-002 
-2.743762e-002 
-2.744876e-002 
-2.735466e-002 
-2.732379e-002 
-2.746677e-002 
-2.751033e-002 
-2.739719e-002 
-2.737530e-002 
-2.737196e-002 
-2.729500e-002 
-2.724412e-002 
-2.719264e-002 
-2.722887e-002 
-2.710239e-002 
-2.697859e-002 
-2.699624e-002 
-2.687457e-002 
-2.671746e-002 
-2.663927e-002 
-2.668502e-002 
-2.666196e-002 
-2.662853e-002 
-2.668271e-002 
-2.671137e-002 
-2.669216e-002 
-2.672517e-002 
-2.673705e-002 
-2.673886e-002 
-2.676259e-002 
-2.676365e-002 
-2.688202e-002 
-2.685308e-002 
-2.672713e-002 
-2.666954e-002 
-2.659434e-002 
-2.653403e-002 
-2.656285e-002 
-2.655125e-002 
-2.643192e-002 
-2.638308e-002 
-2.643867e-002 
-2.656773e-002 
-2.662728e-002 
-2.671855e-002 
-2.678253e-002 
-2.675437e-002 
-2.683768e-002 
-2.699588e-002 
-2.699460e-002 
-2.699364e-002 
-2.710307e-002 
-2.720172e-002 
-2.721942e-002 
-2.718216e-002 
-2.726956e-002 
-2.721914e-002 
-2.724012e-002 
-2.730414e-002 
-2.728963e-002 
-2.729240e-002 
-2.725239e-002 
-2.722218e-002 
-2.721475e-002 
-2.718647e-002 
-2.722541e-002 
-2.728005e-002 
-2.724858e-002 
-2.715005e-002 
-2.715307e-002 
-2.718548e-002 
-2.721375e-002 
-2.723514e-002 
-2.723963e-002 
-2.727128e-002 
-2.705721e-002 
-2.704238e-002 
-2.714875e-002 
-2.713585e-002 
-2.714711e-002 
-2.711762e-002 
-2.708708e-002 
-2.709436e-002 
-2.712564e-002 
-2.722961e-002 
-2.723784e-002 
-2.714733e-002 
-2.725228e-002 
-2.727001e-002 
-2.720454e-002 
-2.721821e-002 
-2.723605e-002 
-2.719683e-002 
-2.722676e-002 
-2.727526e-002 
-2.725209e-002 
-2.721704e-002 
-2.726830e-002 
-2.732794e-002 
-2.729922e-002 
-2.724855e-002 
-2.722842e-002 
-2.728490e-002 
-2.733413e-002 
-2.734091e-002 
-2.743681e-002 
-2.741722e-002 
-2.724877e-002 
-2.731412e-002 
-2.744818e-002 
-2.733235e-002 
-2.728878e-002 
-2.735243e-002 
-2.727154e-002 
-2.721824e-002 
-2.716840e-002 
-2.718394e-002 
-2.719203e-002 
-2.709726e-002 
-2.709882e-002 
-2.710023e-002 
-2.690188e-002 
-2.673847e-002 
-2.686341e-002 
-2.696233e-002 
-2.691619e-002 
-2.679351e-002 
-2.670234e-002 
-2.660587e-002 
-2.663742e-002 
-2.672823e-002 
-2.687102e-002 
-2.663176e-002 
-2.643445e-002 
-2.657893e-002 
-2.660192e-002 
-2.666114e-002 
-2.662732e-002 
-2.658937e-002 
-2.653389e-002 
-2.647372e-002 
-2.659961e-002 
-2.078991e-002 
1.110223e-016 
-5.026477e-002 
-4.470901e-002 
-4.627594e-002 
-4.735192e-002 
-4.277760e-002 
-3.975684e-002 
-4.142657e-002 
-4.291528e-002 
-4.127854e-002 
-4.213258e-002 
-4.613375e-002 
-4.777450e-002 
-4.794271e-002 
-4.985399e-002 
-5.113330e-002 
-4.986859e-002 
-4.845418e-002 
-4.811413e-002 
-4.650599e-002 
-4.400624e-002 
-4.409466e-002 
-4.521752e-002 
-4.500363e-002 
-4.593552e-002 
-4.822277e-002 
-4.887058e-002 
-4.831001e-002 
-4.927223e-002 
-4.990369e-002 
-4.930527e-002 
-4.885189e-002 
-4.803077e-002 
-4.635729e-002 
-4.592038e-002 
-4.683711e-002 
-4.728525e-002 
-4.809758e-002 
-5.005991e-002 
-5.116020e-002 
-5.067105e-002 
-5.036644e-002 
-4.977278e-002 
-4.794196e-002 
-4.648194e-002 
-4.669069e-002 
-4.568611e-002 
-4.384793e-002 
-4.479200e-002 
-4.634441e-002 
-4.555419e-002 
-4.682822e-002 
-4.991179e-002 
-4.955258e-002 
-4.874706e-002 
-4.947635e-002 
-4.823465e-002 
-4.596251e-002 
-4.570837e-002 
-4.612047e-002 
-4.502358e-002 
-4.399768e-002 
-4.481784e-002 
-4.536411e-002 
-4.512639e-002 
-4.593710e-002 
-4.674857e-002 
-4.568674e-002 
-4.482682e-002 
-4.570735e-002 
-4.491036e-002 
-4.328883e-002 
-4.425741e-002 
-4.542665e-002 
-4.496432e-002 
-4.546244e-002 
-4.690160e-002 
-4.696261e-002 
-4.709889e-002 
-4.811959e-002 
-4.803594e-002 
-4.709941e-002 
-4.685564e-002 
-4.682926e-002 
-4.584785e-002 
-4.502105e-002 
-4.503168e-002 
-4.516969e-002 
-4.514964e-002 
-4.568940e-002 
-4.628349e-002 
-4.629244e-002 
-4.563649e-002 
-4.499231e-002 
-4.511317e-002 
-4.565096e-002 
-4.479213e-002 
-4.306236e-002 
-4.310074e-002 
-4.434101e-002 
-4.457994e-002 
-4.437339e-002 
-4.470404e-002 
-4.533327e-002 
-4.581896e-002 
-4.553400e-002 
-4.418063e-002 
-4.387139e-002 
-4.491798e-002 
-4.479929e-002 
-4.360384e-002 
-4.409461e-002 
-4.577693e-002 
-4.590644e-002 
-4.544217e-002 
-4.710371e-002 
-4.828551e-002 
-4.680078e-002 
-4.580179e-002 
-4.624702e-002 
-4.629990e-002 
-4.478101e-002 
-4.538690e-002 
-4.781143e-002 
-4.660455e-002 
-4.601262e-002 
-4.851566e-002 
-4.933021e-002 
-4.720445e-002 
-4.701334e-002 
-4.859556e-002 
-4.720111e-002 
-4.559053e-002 
-4.656841e-002 
-4.711407e-002 
-4.617264e-002 
-4.695945e-002 
-4.867357e-002 
-4.792993e-002 
-4.706097e-002 
-4.821134e-002 
-4.808724e-002 
-4.635978e-002 
-4.644781e-002 
-4.709387e-002 
-4.646204e-002 
-4.627908e-002 
-4.715620e-002 
-4.771645e-002 
-4.745526e-002 
-4.757692e-002 
-4.760185e-002 
-4.708829e-002 
-4.669810e-002 
-4.671448e-002 
-4.704509e-002 
-4.765561e-002 
-4.807604e-002 
-4.810035e-002 
-4.801105e-002 
-4.844130e-002 
-4.863609e-002 
-4.814604e-002 
-4.791349e-002 
-4.811859e-002 
-4.774986e-002 
-4.733632e-002 
-4.737650e-002 
-4.774221e-002 
-4.774555e-002 
-4.773234e-002 
-4.809235e-002 
-4.809627e-002 
-4.738874e-002 
-4.754405e-002 
-4.823507e-002 
-4.769666e-002 
-4.711665e-002 
-4.773843e-002 
-4.834747e-002 
-4.778069e-002 
-4.770300e-002 
-4.842787e-002 
-4.888435e-002 
-4.841014e-002 
-4.839989e-002 
-4.895377e-002 
-4.841337e-002 
-4.741297e-002 
-4.809619e-002 
-4.914424e-002 
-4.864247e-002 
-4.807428e-002 
-4.890160e-002 
-4.905109e-002 
-4.823541e-002 
-4.835289e-002 
-4.932321e-002 
-4.900772e-002 
-4.787939e-002 
-4.836184e-002 
-4.913307e-002 
-4.893365e-002 
-4.904520e-002 
-4.984386e-002 
-5.007820e-002 
-4.933269e-002 
-4.899823e-002 
-4.981623e-002 
-5.012157e-002 
-4.946388e-002 
-4.944496e-002 
-4.989826e-002 
-4.945504e-002 
-4.933205e-002 
-5.047982e-002 
-5.084593e-002 
-4.992106e-002 
-4.984255e-002 
-5.052168e-002 
-4.995896e-002 
-4.971107e-002 
-5.060093e-002 
-5.073016e-002 
-5.016361e-002 
-4.998237e-002 
-5.064345e-002 
-5.110795e-002 
-5.062126e-002 
-5.065389e-002 
-5.073476e-002 
-4.999108e-002 
-4.996541e-002 
-5.077998e-002 
-5.074633e-002 
-5.052695e-002 
-5.113822e-002 
-5.122290e-002 
-5.042647e-002 
-5.002710e-002 
-5.053914e-002 
-5.102073e-002 
-5.058589e-002 
-5.005894e-002 
-5.046422e-002 
-5.060008e-002 
-5.015293e-002 
-5.058299e-002 
-5.129539e-002 
-5.067395e-002 
-4.970957e-002 
-4.986619e-002 
-4.993366e-002 
-4.952626e-002 
-4.966152e-002 
-4.999551e-002 
-4.950720e-002 
-4.875486e-002 
-4.898528e-002 
-4.956048e-002 
-4.935022e-002 
-4.900375e-002 
-4.897119e-002 
-4.873243e-002 
-4.861656e-002 
-4.921186e-002 
-4.955580e-002 
-4.894583e-002 
-4.825708e-002 
-4.856515e-002 
-4.883241e-002 
-4.887087e-002 
-4.866501e-002 
-4.899753e-002 
-4.897033e-002 
-4.853731e-002 
-4.837177e-002 
-4.872958e-002 
-4.921497e-002 
-4.918022e-002 
-4.816835e-002 
-4.757815e-002 
-4.816069e-002 
-4.767162e-002 
-4.696478e-002 
-4.713749e-002 
-4.778454e-002 
-4.709721e-002 
-4.677003e-002 
-4.735324e-002 
-4.769609e-002 
-4.692225e-002 
-4.619043e-002 
-4.654142e-002 
-4.683411e-002 
-4.652654e-002 
-4.679386e-002 
-4.743963e-002 
-4.676176e-002 
-4.586133e-002 
-4.671331e-002 
-4.772660e-002 
-4.720413e-002 
-4.689736e-002 
-4.774340e-002 
-4.747681e-002 
-4.642185e-002 
-4.665924e-002 
-4.762120e-002 
-4.720405e-002 
-4.639398e-002 
-4.698592e-002 
-4.713199e-002 
-4.617567e-002 
-4.607778e-002 
-4.720356e-002 
-4.734986e-002 
-4.640496e-002 
-4.562473e-002 
-4.565469e-002 
-4.531665e-002 
-4.474506e-002 
-4.546993e-002 
-4.617725e-002 
-4.502203e-002 
-4.403237e-002 
-4.481499e-002 
-4.553732e-002 
-4.536404e-002 
-4.568228e-002 
-4.621121e-002 
-4.601582e-002 
-4.537072e-002 
-4.563252e-002 
-4.649243e-002 
-4.672225e-002 
-4.606494e-002 
-4.556391e-002 
-4.574790e-002 
-4.610281e-002 
-4.611759e-002 
-4.658036e-002 
-4.657221e-002 
-4.575250e-002 
-4.538057e-002 
-4.538350e-002 
-4.504849e-002 
-4.513633e-002 
-4.563253e-002 
-4.646556e-002 
-4.701893e-002 
-4.693063e-002 
-4.652505e-002 
-4.645321e-002 
-4.666023e-002 
-4.742065e-002 
-4.855680e-002 
-4.904014e-002 
-4.904429e-002 
-4.898440e-002 
-4.878154e-002 
-4.852435e-002 
-4.858115e-002 
-4.927256e-002 
-5.012455e-002 
-5.022559e-002 
-4.991805e-002 
-4.930813e-002 
-4.897957e-002 
-4.909797e-002 
-4.922481e-002 
-4.920919e-002 
-4.884107e-002 
-4.877259e-002 
-4.918213e-002 
-4.946258e-002 
-4.930571e-002 
-4.877649e-002 
-4.864792e-002 
-4.854636e-002 
-4.831570e-002 
-4.795667e-002 
-4.790908e-002 
-4.753160e-002 
-4.666051e-002 
-4.629701e-002 
-4.572875e-002 
-4.519830e-002 
-4.467315e-002 
-4.453488e-002 
-4.458192e-002 
-4.460605e-002 
-4.469981e-002 
-4.485097e-002 
-4.504278e-002 
-4.509609e-002 
-4.497824e-002 
-4.514263e-002 
-4.552343e-002 
-4.559383e-002 
-4.564399e-002 
-4.561040e-002 
-4.526435e-002 
-4.484792e-002 
-4.436137e-002 
-4.391523e-002 
-4.380626e-002 
-4.371644e-002 
-4.345450e-002 
-4.318469e-002 
-4.325744e-002 
-4.399752e-002 
-4.441006e-002 
-4.477566e-002 
-4.528372e-002 
-4.544559e-002 
-4.578111e-002 
-4.606455e-002 
-4.650689e-002 
-4.694936e-002 
-4.735631e-002 
-4.765640e-002 
-4.775165e-002 
-4.803908e-002 
-4.787960e-002 
-4.797821e-002 
-4.839826e-002 
-4.842618e-002 
-4.826766e-002 
-4.827921e-002 
-4.826186e-002 
-4.807021e-002 
-4.784896e-002 
-4.781149e-002 
-4.824458e-002 
-4.816864e-002 
-4.784746e-002 
-4.773547e-002 
-4.785248e-002 
-4.764620e-002 
-4.770578e-002 
-4.822117e-002 
-4.837116e-002 
-4.764671e-002 
-4.721723e-002 
-4.737082e-002 
-4.744370e-002 
-4.726803e-002 
-4.761100e-002 
-4.765506e-002 
-4.734279e-002 
-4.699594e-002 
-4.763106e-002 
-4.818951e-002 
-4.782084e-002 
-4.761247e-002 
-4.824176e-002 
-4.840513e-002 
-4.774232e-002 
-4.785005e-002 
-4.830300e-002 
-4.813862e-002 
-4.771721e-002 
-4.804997e-002 
-4.862335e-002 
-4.823873e-002 
-4.789351e-002 
-4.854827e-002 
-4.884180e-002 
-4.795369e-002 
-4.769041e-002 
-4.880320e-002 
-4.898267e-002 
-4.831717e-002 
-4.883706e-002 
-4.931455e-002 
-4.877603e-002 
-4.819004e-002 
-4.877657e-002 
-4.911678e-002 
-4.838984e-002 
-4.821750e-002 
-4.855444e-002 
-4.819343e-002 
-4.750404e-002 
-4.752784e-002 
-4.790336e-002 
-4.751446e-002 
-4.692876e-002 
-4.686831e-002 
-4.648963e-002 
-4.563769e-002 
-4.543273e-002 
-4.611776e-002 
-4.647863e-002 
-4.536031e-002 
-4.462202e-002 
-4.475457e-002 
-4.475997e-002 
-4.476663e-002 
-4.512001e-002 
-4.493816e-002 
-4.393860e-002 
-4.373515e-002 
-4.444715e-002 
-4.466897e-002 
-4.416740e-002 
-4.407566e-002 
-4.412627e-002 
-4.387826e-002 
-4.394575e-002 
-4.394575e-002 
1.110223e-016 
-4.978841e-002 
-4.843963e-002 
-4.551696e-002 
-4.370399e-002 
-4.368799e-002 
-4.337122e-002 
-4.202573e-002 
-4.166353e-002 
-4.271871e-002 
-4.346267e-002 
-4.505354e-002 
-4.788859e-002 
-5.020467e-002 
-4.938249e-002 
-4.869330e-002 
-5.002278e-002 
-4.959736e-002 
-4.751893e-002 
-4.674649e-002 
-4.593475e-002 
-4.433285e-002 
-4.435472e-002 
-4.580576e-002 
-4.729577e-002 
-4.801212e-002 
-4.864988e-002 
-4.893821e-002 
-4.913079e-002 
-4.925928e-002 
-4.947260e-002 
-4.883549e-002 
-4.754232e-002 
-4.665733e-002 
-4.682309e-002 
-4.781064e-002 
-4.770250e-002 
-4.776105e-002 
-4.927974e-002 
-5.031884e-002 
-5.040416e-002 
-5.021453e-002 
-4.963500e-002 
-4.788638e-002 
-4.671355e-002 
-4.662201e-002 
-4.546834e-002 
-4.476757e-002 
-4.568446e-002 
-4.624188e-002 
-4.631419e-002 
-4.769816e-002 
-4.841179e-002 
-4.847372e-002 
-4.902880e-002 
-4.806924e-002 
-4.728306e-002 
-4.770137e-002 
-4.625079e-002 
-4.469138e-002 
-4.507866e-002 
-4.505960e-002 
-4.408313e-002 
-4.514922e-002 
-4.682786e-002 
-4.578699e-002 
-4.506640e-002 
-4.610824e-002 
-4.519442e-002 
-4.401282e-002 
-4.487857e-002 
-4.482641e-002 
-4.383708e-002 
-4.459063e-002 
-4.598651e-002 
-4.592773e-002 
-4.554788e-002 
-4.681838e-002 
-4.792277e-002 
-4.749547e-002 
-4.742921e-002 
-4.761922e-002 
-4.689039e-002 
-4.590408e-002 
-4.572548e-002 
-4.579111e-002 
-4.543688e-002 
-4.535988e-002 
-4.575838e-002 
-4.611586e-002 
-4.589794e-002 
-4.570046e-002 
-4.587684e-002 
-4.570493e-002 
-4.518044e-002 
-4.517535e-002 
-4.509560e-002 
-4.379307e-002 
-4.342504e-002 
-4.446399e-002 
-4.451740e-002 
-4.355136e-002 
-4.478794e-002 
-4.623816e-002 
-4.487878e-002 
-4.395960e-002 
-4.538510e-002 
-4.572028e-002 
-4.419203e-002 
-4.389760e-002 
-4.498174e-002 
-4.492814e-002 
-4.439197e-002 
-4.575604e-002 
-4.695771e-002 
-4.638525e-002 
-4.631229e-002 
-4.666790e-002 
-4.688497e-002 
-4.533955e-002 
-4.579716e-002 
-4.741134e-002 
-4.547418e-002 
-4.628117e-002 
-4.734178e-002 
-4.684653e-002 
-4.717756e-002 
-4.834199e-002 
-4.836752e-002 
-4.704687e-002 
-4.797800e-002 
-4.772555e-002 
-4.566891e-002 
-4.576827e-002 
-4.735573e-002 
-4.761548e-002 
-4.696594e-002 
-4.774911e-002 
-4.818081e-002 
-4.674098e-002 
-4.747764e-002 
-4.860389e-002 
-4.681024e-002 
-4.567772e-002 
-4.727326e-002 
-4.744673e-002 
-4.621784e-002 
-4.681253e-002 
-4.807324e-002 
-4.703476e-002 
-4.642746e-002 
-4.791903e-002 
-4.791354e-002 
-4.634109e-002 
-4.655287e-002 
-4.809003e-002 
-4.809279e-002 
-4.726742e-002 
-4.780788e-002 
-4.856859e-002 
-4.776180e-002 
-4.783641e-002 
-4.898005e-002 
-4.845873e-002 
-4.717574e-002 
-4.721943e-002 
-4.816790e-002 
-4.756311e-002 
-4.693285e-002 
-4.796800e-002 
-4.847345e-002 
-4.765756e-002 
-4.763903e-002 
-4.859839e-002 
-4.833786e-002 
-4.712807e-002 
-4.754378e-002 
-4.824943e-002 
-4.755852e-002 
-4.758516e-002 
-4.854951e-002 
-4.848405e-002 
-4.762767e-002 
-4.839218e-002 
-4.940908e-002 
-4.865171e-002 
-4.808090e-002 
-4.869266e-002 
-4.873070e-002 
-4.791843e-002 
-4.801530e-002 
-4.909869e-002 
-4.873509e-002 
-4.788773e-002 
-4.893077e-002 
-4.944524e-002 
-4.820258e-002 
-4.774364e-002 
-4.924570e-002 
-4.947524e-002 
-4.809151e-002 
-4.841611e-002 
-4.963592e-002 
-4.947556e-002 
-4.912171e-002 
-5.002885e-002 
-5.035940e-002 
-4.925221e-002 
-4.911955e-002 
-5.028069e-002 
-5.028750e-002 
-4.909138e-002 
-4.956283e-002 
-5.054040e-002 
-5.000849e-002 
-4.971768e-002 
-5.063328e-002 
-5.063258e-002 
-4.927817e-002 
-4.940652e-002 
-5.036278e-002 
-5.044241e-002 
-5.034896e-002 
-5.104304e-002 
-5.089569e-002 
-4.998854e-002 
-4.985385e-002 
-5.084163e-002 
-5.107531e-002 
-5.054137e-002 
-5.059423e-002 
-5.049832e-002 
-4.991083e-002 
-4.994542e-002 
-5.067106e-002 
-5.062475e-002 
-5.024845e-002 
-5.073591e-002 
-5.063368e-002 
-5.001934e-002 
-5.013421e-002 
-5.104227e-002 
-5.120388e-002 
-5.014808e-002 
-4.980566e-002 
-5.048799e-002 
-5.035576e-002 
-5.035654e-002 
-5.090778e-002 
-5.067062e-002 
-4.943898e-002 
-4.894835e-002 
-4.955706e-002 
-4.989065e-002 
-4.985361e-002 
-4.995678e-002 
-4.976849e-002 
-4.878394e-002 
-4.858616e-002 
-4.927784e-002 
-4.962232e-002 
-4.912610e-002 
-4.904270e-002 
-4.900842e-002 
-4.865047e-002 
-4.897245e-002 
-4.963201e-002 
-4.949620e-002 
-4.883402e-002 
-4.884757e-002 
-4.921735e-002 
-4.881138e-002 
-4.840411e-002 
-4.918884e-002 
-4.901452e-002 
-4.834118e-002 
-4.811763e-002 
-4.860505e-002 
-4.876157e-002 
-4.880610e-002 
-4.892174e-002 
-4.789479e-002 
-4.697579e-002 
-4.723268e-002 
-4.838212e-002 
-4.826706e-002 
-4.746618e-002 
-4.693984e-002 
-4.713660e-002 
-4.688683e-002 
-4.719516e-002 
-4.767767e-002 
-4.695496e-002 
-4.580621e-002 
-4.608987e-002 
-4.708141e-002 
-4.698180e-002 
-4.708501e-002 
-4.735079e-002 
-4.721928e-002 
-4.621332e-002 
-4.610624e-002 
-4.741432e-002 
-4.744909e-002 
-4.690978e-002 
-4.725607e-002 
-4.715518e-002 
-4.635212e-002 
-4.627166e-002 
-4.742454e-002 
-4.769346e-002 
-4.704004e-002 
-4.651179e-002 
-4.701544e-002 
-4.676684e-002 
-4.616487e-002 
-4.685373e-002 
-4.747112e-002 
-4.700439e-002 
-4.566008e-002 
-4.521500e-002 
-4.524512e-002 
-4.519835e-002 
-4.581544e-002 
-4.643242e-002 
-4.559396e-002 
-4.456116e-002 
-4.430269e-002 
-4.521185e-002 
-4.601584e-002 
-4.637336e-002 
-4.686105e-002 
-4.629493e-002 
-4.544692e-002 
-4.477168e-002 
-4.569299e-002 
-4.652371e-002 
-4.616188e-002 
-4.576949e-002 
-4.583637e-002 
-4.599880e-002 
-4.589818e-002 
-4.572068e-002 
-4.577708e-002 
-4.580517e-002 
-4.596155e-002 
-4.574419e-002 
-4.539528e-002 
-4.563280e-002 
-4.578738e-002 
-4.649569e-002 
-4.694669e-002 
-4.683875e-002 
-4.670121e-002 
-4.691476e-002 
-4.689243e-002 
-4.707705e-002 
-4.824395e-002 
-4.897123e-002 
-4.930408e-002 
-4.920994e-002 
-4.873105e-002 
-4.879032e-002 
-4.877257e-002 
-4.938371e-002 
-5.013771e-002 
-4.979738e-002 
-4.888135e-002 
-4.829676e-002 
-4.894170e-002 
-4.922232e-002 
-4.885935e-002 
-4.921147e-002 
-4.945084e-002 
-4.888167e-002 
-4.896389e-002 
-4.945512e-002 
-4.933543e-002 
-4.841052e-002 
-4.813994e-002 
-4.829882e-002 
-4.780613e-002 
-4.718028e-002 
-4.694231e-002 
-4.695488e-002 
-4.626697e-002 
-4.577776e-002 
-4.568223e-002 
-4.546328e-002 
-4.499604e-002 
-4.465931e-002 
-4.492040e-002 
-4.500367e-002 
-4.523386e-002 
-4.563143e-002 
-4.584840e-002 
-4.544346e-002 
-4.534471e-002 
-4.593374e-002 
-4.609898e-002 
-4.576823e-002 
-4.538021e-002 
-4.511657e-002 
-4.456410e-002 
-4.418928e-002 
-4.427735e-002 
-4.413757e-002 
-4.412230e-002 
-4.394075e-002 
-4.365845e-002 
-4.370585e-002 
-4.404928e-002 
-4.465262e-002 
-4.452997e-002 
-4.447729e-002 
-4.500714e-002 
-4.559695e-002 
-4.593627e-002 
-4.601771e-002 
-4.634033e-002 
-4.689196e-002 
-4.710684e-002 
-4.769568e-002 
-4.785625e-002 
-4.757579e-002 
-4.761972e-002 
-4.790193e-002 
-4.829848e-002 
-4.791367e-002 
-4.811709e-002 
-4.831538e-002 
-4.811316e-002 
-4.802139e-002 
-4.792757e-002 
-4.802927e-002 
-4.803484e-002 
-4.824549e-002 
-4.804598e-002 
-4.784455e-002 
-4.750093e-002 
-4.780935e-002 
-4.791361e-002 
-4.761192e-002 
-4.774263e-002 
-4.760762e-002 
-4.758037e-002 
-4.756684e-002 
-4.796173e-002 
-4.844190e-002 
-4.797431e-002 
-4.753393e-002 
-4.769283e-002 
-4.788306e-002 
-4.793673e-002 
-4.805187e-002 
-4.818172e-002 
-4.789071e-002 
-4.769809e-002 
-4.818666e-002 
-4.827509e-002 
-4.796732e-002 
-4.801558e-002 
-4.846406e-002 
-4.827917e-002 
-4.805162e-002 
-4.830013e-002 
-4.868089e-002 
-4.846298e-002 
-4.857043e-002 
-4.873213e-002 
-4.839684e-002 
-4.795559e-002 
-4.852403e-002 
-4.889712e-002 
-4.817001e-002 
-4.833586e-002 
-4.867849e-002 
-4.855465e-002 
-4.810842e-002 
-4.818617e-002 
-4.874944e-002 
-4.800200e-002 
-4.748886e-002 
-4.817787e-002 
-4.824840e-002 
-4.735797e-002 
-4.692249e-002 
-4.756759e-002 
-4.747320e-002 
-4.671063e-002 
-4.634925e-002 
-4.626760e-002 
-4.610853e-002 
-4.591434e-002 
-4.620989e-002 
-4.598077e-002 
-4.471368e-002 
-4.432237e-002 
-4.511365e-002 
-4.526214e-002 
-4.505214e-002 
-4.455780e-002 
-4.445961e-002 
-4.455718e-002 
-4.443112e-002 
-4.493246e-002 
-4.479197e-002 
-4.399144e-002 
-4.363205e-002 
-4.406001e-002 
-4.435601e-002 
-4.435601e-002 
1.110223e-016 
-4.820720e-002 
-5.004122e-002 
-4.546744e-002 
-4.222050e-002 
-4.384618e-002 
-4.523982e-002 
-4.323887e-002 
-4.139185e-002 
-4.281870e-002 
-4.462352e-002 
-4.560735e-002 
-4.800716e-002 
-4.994863e-002 
-4.944991e-002 
-4.874422e-002 
-4.977996e-002 
-4.993884e-002 
-4.809298e-002 
-4.656629e-002 
-4.630408e-002 
-4.492373e-002 
-4.437241e-002 
-4.638288e-002 
-4.812374e-002 
-4.844497e-002 
-4.866969e-002 
-4.877447e-002 
-4.831345e-002 
-4.911465e-002 
-5.005788e-002 
-4.865902e-002 
-4.692710e-002 
-4.731468e-002 
-4.748488e-002 
-4.708322e-002 
-4.764999e-002 
-4.847622e-002 
-4.860748e-002 
-4.983791e-002 
-5.137258e-002 
-5.010144e-002 
-4.755158e-002 
-4.769926e-002 
-4.795333e-002 
-4.600073e-002 
-4.502237e-002 
-4.643532e-002 
-4.584337e-002 
-4.497438e-002 
-4.700252e-002 
-4.799069e-002 
-4.708348e-002 
-4.867699e-002 
-4.915397e-002 
-4.716839e-002 
-4.696924e-002 
-4.746250e-002 
-4.608579e-002 
-4.460114e-002 
-4.487284e-002 
-4.555368e-002 
-4.487741e-002 
-4.473172e-002 
-4.598773e-002 
-4.615253e-002 
-4.503756e-002 
-4.493385e-002 
-4.531980e-002 
-4.455234e-002 
-4.422512e-002 
-4.446845e-002 
-4.407088e-002 
-4.468263e-002 
-4.615180e-002 
-4.608749e-002 
-4.569143e-002 
-4.649098e-002 
-4.719815e-002 
-4.734998e-002 
-4.755268e-002 
-4.733116e-002 
-4.652814e-002 
-4.606554e-002 
-4.590326e-002 
-4.553393e-002 
-4.575656e-002 
-4.624545e-002 
-4.605050e-002 
-4.575361e-002 
-4.597634e-002 
-4.605230e-002 
-4.575295e-002 
-4.597887e-002 
-4.571268e-002 
-4.458345e-002 
-4.463975e-002 
-4.513883e-002 
-4.417590e-002 
-4.316486e-002 
-4.417983e-002 
-4.521332e-002 
-4.471339e-002 
-4.435454e-002 
-4.499323e-002 
-4.519393e-002 
-4.517494e-002 
-4.521495e-002 
-4.478157e-002 
-4.454137e-002 
-4.467691e-002 
-4.494141e-002 
-4.484683e-002 
-4.575100e-002 
-4.690457e-002 
-4.625922e-002 
-4.541976e-002 
-4.638544e-002 
-4.703839e-002 
-4.608803e-002 
-4.538437e-002 
-4.725268e-002 
-4.709844e-002 
-4.502127e-002 
-4.664431e-002 
-4.834467e-002 
-4.716825e-002 
-4.691358e-002 
-4.903340e-002 
-4.820062e-002 
-4.625575e-002 
-4.696237e-002 
-4.748368e-002 
-4.578958e-002 
-4.595818e-002 
-4.876894e-002 
-4.863894e-002 
-4.628853e-002 
-4.655131e-002 
-4.832449e-002 
-4.802327e-002 
-4.676840e-002 
-4.722285e-002 
-4.723746e-002 
-4.613671e-002 
-4.672925e-002 
-4.789314e-002 
-4.712370e-002 
-4.616605e-002 
-4.698449e-002 
-4.779566e-002 
-4.711993e-002 
-4.663584e-002 
-4.728447e-002 
-4.736263e-002 
-4.704413e-002 
-4.742925e-002 
-4.837489e-002 
-4.783913e-002 
-4.708328e-002 
-4.790075e-002 
-4.891540e-002 
-4.831416e-002 
-4.750709e-002 
-4.790061e-002 
-4.774269e-002 
-4.711809e-002 
-4.735754e-002 
-4.796508e-002 
-4.790833e-002 
-4.774005e-002 
-4.808790e-002 
-4.818394e-002 
-4.796148e-002 
-4.790320e-002 
-4.805979e-002 
-4.785246e-002 
-4.793993e-002 