# vtk DataFile Version 2.0
2D-ADE data file 
ASCII
DATASET RECTILINEAR_GRID
DIMENSIONS 128 128 1 
X_COORDINATES 128 int
0 1 2 3 4 5 6 7 8 9 10 11 12 13 14 15 16 17 18 19 20 21 22 23 24 25 26 27 28 29 30 31 32 33 34 35 36 37 38 39 40 41 42 43 44 45 46 47 48 49 50 51 52 53 54 55 56 57 58 59 60 61 62 63 64 65 66 67 68 69 70 71 72 73 74 75 76 77 78 79 80 81 82 83 84 85 86 87 88 89 90 91 92 93 94 95 96 97 98 99 100 101 102 103 104 105 106 107 108 109 110 111 112 113 114 115 116 117 118 119 120 121 122 123 124 125 126 127 
Y_COORDINATES 128 int
0 1 2 3 4 5 6 7 8 9 10 11 12 13 14 15 16 17 18 19 20 21 22 23 24 25 26 27 28 29 30 31 32 33 34 35 36 37 38 39 40 41 42 43 44 45 46 47 48 49 50 51 52 53 54 55 56 57 58 59 60 61 62 63 64 65 66 67 68 69 70 71 72 73 74 75 76 77 78 79 80 81 82 83 84 85 86 87 88 89 90 91 92 93 94 95 96 97 98 99 100 101 102 103 104 105 106 107 108 109 110 111 112 113 114 115 116 117 118 119 120 121 122 123 124 125 126 127 
Z_COORDINATES 1 int
0
POINT_DATA 16384
SCALARS density double
LOOKUP_TABLE default
0
0
0
0
0
0
0
0
0
0
0
0
0
0
0
0
0
0
0
0
0
0
0
0
0
0
0
0
0
0
0
0
0
0
0
0
0
0
0
0
0
0
0
0
0
0
0
0
0
0
0
0
0
0
0
0
0
0
0
0
0
0
0
0
0
0
0
0
0
0
0
0
0
0
0
0
0
0
0
0
0
0
0
0
0
0
0
0
0
0
0
0
0
0
0
0
0
0
0
0
0
0
0
0
0
0
0
0
0
0
0
0
0
0
0
0
0
0
0
0
0
0
0
0
0
0
0
0
0
0.9996891717045582
0.9996892477622804
0.9996891604941565
0.9996888474188738
0.9996883000570218
0.9996875578109122
0.9996866594711796
0.9996856388359323
0.9996845263386751
0.99968334966723
0.9996821332188658
0.9996808982485276
0.9996796632083063
0.9996784440721382
0.9996772546041356
0.9996761066119725
0.9996750101808762
0.9996739738848001
0.9996730049750454
0.9996721095491635
0.9996712927020073
0.9996705586605412
0.9996699109038638
0.9996693522697934
0.9996688850491715
0.9996685110689358
0.9996682317648586
0.9996680482447874
0.9996679613431209
0.9996679716672092
0.9996680796362989
0.9996682855136066
0.9996685894320695
0.9996689914142841
0.9996694913871249
0.9996700891915077
0.9996707845877394
0.9996715772568886
0.9996724667985832
0.9996734527256337
0.9996745344558651
0.9996757113015307
0.9996769824566654
0.999678346982729
0.9996798037928749
0.9996813516351831
0.9996829890751646
0.9996847144778609
0.9996865259898358
0.9996884215213562
0.9996903987290513
0.9996924549993268
0.9996945874328077
0.9996967928300712
0.9996990676789221
0.9997014081434572
0.9997038100551479
0.9997062689061659
0.999708779845156
0.9997113376756513
0.9997139368573097
0.9997165715101244
0.9997192354217553
0.9997219220580927
0.9997246245771474
0.9997273358463332
0.9997300484631848
0.9997327547795087
0.9997354469289568
0.9997381168579496
0.9997407563598719
0.9997433571123943
0.9997459107177697
0.9997484087458914
0.9997508427798758
0.9997532044638894
0.9997554855529147
0.9997576779641043
0.9997597738293506
0.9997617655486672
0.9997636458439632
0.9997654078127535
0.999767044981367
0.999768551357167
0.999769921479335
0.9997711504677417
0.9997722340694717
0.9997731687025575
0.9997739514965277
0.9997745803294016
0.9997750538607966
0.9997753715608775
0.9997755337349227
0.9997755415433446
0.9997753970170739
0.9997751030682908
0.9997746634965574
0.9997740829904924
0.9997733671252149
0.9997725223558561
0.9997715560075429
0.9997704762623174
0.9997692921435587
0.999768013498526
0.9997666509797242
0.9997652160258335
0.9997637208429696
0.9997621783870505
0.9997606023479791
0.9997590071362421
0.9997574078721913
0.9997558203778668
0.9997542611705136
0.9997527474563978
0.9997512971180391
0.9997499286848456
0.9997486612712992
0.9997475145035036
0.9997465083059623
0.9997456623637013
0.9997449948017026
0.9997445221729285
0.9997442578243296
0.999744202752767
0.9997442897459007
0.9997444268589657
0
0
0.9996890962597437
0.9996891722189573
0.9996890722347872
0.9996887698799519
0.9996882819728397
0.9996876253771678
0.9996868267289899
0.9996859138647304
0.9996849136573378
0.9996838503791593
0.9996827459447387
0.9996816199118239
0.9996804895681106
0.9996793700657919
0.9996782746164017
0.9996772146825805
0.9996762001606729
0.9996752395518145
0.9996743401213604
0.9996735080452382
0.9996727485432263
0.9996720659997026
0.9996714640725203
0.9996709457907365
0.9996705136418542
0.9996701696493022
0.9996699154407599
0.9996697523079838
0.9996696812586855
0.9996697030610349
0.999669818281294
0.9996700273150929
0.9996703304128058
0.9996707276994999
0.9996712191898751
0.9996718047986318
0.9996724843466583
0.999673257563443
0.9996741240860827
0.9996750834552584
0.9996761351085396
0.9996772783713636
0.9996785124460247
0.9996798363990081
0.9996812491469869
0.999682749441794
0.9996843358546779
0.9996860067601313
0.9996877603195929
0.9996895944652925
0.9996915068845275
0.9996934950046247
0.999695555978859
0.9996976866735693
0.9996998836567249
0.9997021431881646
0.9997044612117418
0.9997068333495766
0.9997092548986228
0.9997117208297229
0.9997142257893342
0.9997167641040587
0.9997193297881276
0.9997219165539323
0.9997245178257056
0.9997271267563983
0.999729736247802
0.9997323389739099
0.9997349274075034
0.9997374938498896
0.9997400304637216
0.9997425293087516
0.9997449823803793
0.9997473816507787
0.9997497191123906
0.999751986823501
0.9997541769556202
0.9997562818423211
0.9997582940291939
0.9997602063245188
0.99976201185027
0.9997637040930126
0.9997652769542762
0.9997667247999509
0.9997680425082763
0.9997692255159769
0.9997702698621316
0.999771172229362
0.9997719299819696
0.999772541200665
0.9997730047135901
0.9997733201233644
0.9997734878299529
0.9997735090491948
0.9997733858269074
0.9997731210485414
0.9997727184444347
0.9997721825907833
0.9997715189065184
0.9997707336463576
0.9997698338903687
0.999768827530434
0.9997677232540921
0.9997665305262461
0.999765259569291
0.9997639213421969
0.9997625275190738
0.9997610904676639
0.9997596232280572
0.9997581394916687
0.9997566535801498
0.9997551804231403
0.9997537355325435
0.999752334968924
0.9997509952951958
0.9997497335073822
0.9997485669198698
0.9997475129432107
0.9997465887536862
0.9997458108284856
0.9997451942591109
0.99974475034467
0.9997444829348479
0.9997443836882942
0.9997444260552226
0.9997445627637511
0
0
0.9996891840244782
0.9996892726973527
0.9996891724623449
0.9996888834526052
0.9996884326828452
0.9996878323890638
0.9996871053236903
0.9996862745980335
0.9996853629036201
0.999684391372235
0.9996833796397901
0.9996823454968425
0.9996813048744156
0.9996802719174469
0.9996792591081431
0.9996782773907296
0.9996773363063469
0.999676444128743
0.9996756079954293
0.9996748340311424
0.9996741274628684
0.9996734927260196
0.9996729335615648
0.9996724531042621
0.9996720539622115
0.9996717382881346
0.9996715078427122
0.9996713640504469
0.9996713080484166
0.9996713407283888
0.9996714627726603
0.9996716746840819
0.9996719768106191
0.9996723693648861
0.999672852438998
0.9996734260151475
0.9996740899722442
0.9996748440889958
0.9996756880437606
0.9996766214115317
0.9996776436583634
0.9996787541335821
0.9996799520600882
0.9996812365230636
0.9996826064573826
0.9996840606340293
0.999685597645801
0.9996872158925855
0.9996889135664891
0.9996906886370792
0.999692538837006
0.9996944616482613
0.9996964542893204
0.999698513703405
0.9997006365481063
0.9997028191865835
0.9997050576805612
0.9997073477853142
0.9997096849468463
0.9997120643014233
0.9997144806776386
0.9997169286011378
0.9997194023021471
0.9997218957258897
0.9997244025459976
0.9997269161809522
0.9997294298136105
0.9997319364138003
0.999734428763978
0.9997368994878754
0.9997393410820674
0.9997417459503166
0.999744106440568
0.9997464148843715
0.9997486636385479
0.9997508451288073
0.9997529518950665
0.9997549766381225
0.9997569122673642
0.9997587519491317
0.999760489155362
0.999762117712094
0.9997636318474391
0.9997650262385797
0.9997662960573905
0.9997674370142462
0.9997684453996375
0.999769318123178
0.9997700527496695
0.9997706475318661
0.9997711014396674
0.9997714141854657
0.9997715862454687
0.9997716188768192
0.999771514130452
0.9997712748596252
0.9997709047241875
0.9997704081906551
0.9997697905282807
0.9997690578013162
0.9997682168577793
0.999767275315024
0.999766241542522
0.9997651246422252
0.9997639344269439
0.9997626813970922
0.9997613767161491
0.9997600321850134
0.9997586602152606
0.9997572738009164
0.9997558864879349
0.9997545123398437
0.9997531658971065
0.9997518621245328
0.9997506163388072
0.9997494441058108
0.9997483611055409
0.999747382904788
0.9997465245780421
0.9997458000697952
0.9997452218152261
0.9997447992408705
0.999744536137612
0.9997444251810069
0.9997444680924806
0.9997446495241719
0
0
0.9996894981598241
0.9996895763136774
0.9996894617264692
0.999689171622137
0.9996887346531834
0.9996881666483748
0.9996874873977427
0.9996867155791845
0.9996858705554155
0.9996849708969279
0.9996840339794795
0.9996830757245598
0.9996821106145145
0.9996811516773756
0.9996802105292735
0.9996792974526058
0.9996784214949138
0.9996775905714306
0.9996768115684269
0.9996760904446779
0.9996754323287569
0.9996748416106557
0.9996743220269242
0.9996738767390926
0.9996735084051604
0.9996732192442855
0.9996730110947168
0.9996728854652771
0.9996728435805805
0.9996728864203417
0.9996730147530296
0.9996732291642403
0.9996735300800585
0.9996739177858043
0.9996743924404221
0.9996749540869106
0.9996756026590568
0.9996763379848439
0.9996771597868134
0.9996780676797199
0.9996790611657629
0.9996801396277121
0.9996813023202121
0.999682548359563
0.9996838767122509
0.9996852861825177
0.9996867753992362
0.9996883428023583
0.9996899866292013
0.9996917049008225
0.9996934954087385
0.9996953557022297
0.9996972830764674
0.9996992745616937
0.9997013269136805
0.9997034366056781
0.999705599822063
0.999707812453873
0.9997100700964239
0.9997123680491644
0.9997147013179422
0.9997170646198007
0.9997194523904531
0.9997218587945076
0.9997242777385541
0.9997267028871423
0.9997291276817113
0.9997315453624455
0.9997339489930651
0.9997363314884697
0.9997386856451776
0.9997410041744148
0.9997432797377395
0.9997455049849844
0.99974767259434
0.9997497753142962
0.9997518060072023
0.9997537576941077
0.9997556236005877
0.9997573972031611
0.9997590722759675
0.9997606429372768
0.9997621036954669
0.9997634494940243
0.9997646757551998
0.9997657784218804
0.9997667539973168
0.9997675995823039
0.9997683129094874
0.999768892374451
0.9997693370633196
0.9997696467766072
0.9997698220491348
0.9997698641658402
0.9997697751734103
0.9997695578876649
0.9997692158967448
0.9997687535601454
0.9997681760037586
0.9997674891110857
0.9997666995108804
0.9997658145614678
0.9997648423320746
0.9997637915814495
0.9997626717341042
0.9997614928544021
0.9997602656186888
0.9997590012854508
0.9997577116633348
0.9997564090764701
0.9997551063260367
0.9997538166459929
0.9997525536503321
0.9997513312682867
0.9997501636619557
0.9997490651081532
0.9997480498334727
0.9997471317958586
0.9997463244570278
0.9997456402606987
0.9997450899777629
0.9997446816265367
0.9997444219449603
0.9997443125498886
0.9997443695301306
0.9997445966778655
0
0
0.9996900488639352
0.9996900673396546
0.9996899138134633
0.9996896066996784
0.9996891675550094
0.999688613357123
0.9996879616402591
0.9996872288922471
0.9996864318906062
0.9996855866842734
0.999684708495264
0.999683811506224
0.9996829087594591
0.9996820120970561
0.9996811321812028
0.9996802785392495
0.999679459625826
0.9996786828960338
0.9996779548855949
0.9996772812926659
0.9996766670583329
0.9996761164442204
0.9996756331060002
0.9996752201621262
0.9996748802572306
0.9996746156200776
0.9996744281158964
0.9996743192932438
0.9996742904254159
0.9996743425466681
0.9996744764833781
0.9996746928804606
0.999674992223226
0.9996753748550127
0.999675840990814
0.9996763907272422
0.9996770240490496
0.9996777408325604
0.9996785408462322
0.9996794237486915
0.9996803890844685
0.9996814362777562
0.9996825646244246
0.9996837732825992
0.9996850612620335
0.9996864274125672
0.9996878704119013
0.9996893887529638
0.9996909807310987
0.9996926444313312
0.9996943777159378
0.9996961782125677
0.9996980433031293
0.9996999701136703
0.9997019555054651
0.9997039960675155
0.9997060881106614
0.9997082276634943
0.9997104104702497
0.9997126319908394
0.9997148874031895
0.9997171716079986
0.9997194792360655
0.9997218046582549
0.9997241419982104
0.9997264851478495
0.9997288277856979
0.9997311633980369
0.9997334853028855
0.9997357866767275
0.9997380605839367
0.9997403000087594
0.9997424978897426
0.9997446471564044
0.9997467407679613
0.9997487717538583
0.999750733255855
0.9997526185713428
0.9997544211976076
0.9997561348766576
0.9997577536402846
0.9997592718549496
0.999760684266133
0.9997619860417162
0.9997631728140355
0.9997642407201721
0.9997651864401351
0.9997660072325326
0.9997667009674144
0.9997672661559429
0.9997677019766332
0.9997680082978823
0.9997681856966267
0.9997682354729307
0.9997681596604349
0.999767961032587
0.9997676431046851
0.9997672101317552
0.999766667102409
0.9997660197288017
0.9997652744329152
0.9997644383293692
0.9997635192050314
0.9997625254956409
0.9997614662597073
0.9997603511498122
0.9997591903814268
0.9997579946991336
0.999756775339966
0.9997555439931956
0.9997543127556373
0.9997530940807957
0.9997519007190447
0.999750745644286
0.9997496419647527
0.9997486028123979
0.999747641200838
0.9997467698118433
0.9997460007779119
0.9997453454027286
0.9997448139866263
0.9997444149969352
0.9997441573047298
0.9997440483293326
0.9997441045439248
0.9997443379132618
0
0
0.9996907988423288
0.999690730459368
0.9996905177412058
0.9996901739873295
0.9996897155088275
0.9996891579936608
0.9996885166429482
0.9996878060669102
0.999687040670318
0.9996862343447332
0.9996854004178326
0.999684551407253
0.9996836989162521
0.9996828535859494
0.9996820250863054
0.9996812221278732
0.9996804524987133
0.999679723116398
0.9996790400879536
0.9996784087737522
0.9996778338528622
0.9996773193878634
0.9996768688874121
0.9996764853656729
0.9996761713978232
0.9996759291713513
0.9996757605327693
0.9996756670297604
0.9996756499486368
0.9996757103472889
0.9996758490836466
0.9996760668399101
0.999676364142651
0.9996767413790908
0.9996771988096921
0.9996777365773934
0.999678354713654
0.9996790531416313
0.9996798316766807
0.9996806900244943
0.9996816277770781
0.9996826444068732
0.9996837392592224
0.9996849115434848
0.9996861603229942
0.9996874845041533
0.9996888828248632
0.9996903538425624
0.9996918959220814
0.9996935072235618
0.9996951856906587
0.9996969290392523
0.9996987347468831
0.9997006000431272
0.9997025219011167
0.9997044970304042
0.9997065218713652
0.9997085925913224
0.9997107050825647
0.9997128549624222
0.999715037575554
0.9997172479985689
0.999719481047119
0.9997217312855458
0.999723993039176
0.999726260409316
0.9997285272909915
0.999730787393425
0.9997330342632608
0.9997352613104586
0.9997374618368173
0.9997396290669911
0.9997417561818849
0.9997438363542425
0.9997458627862427
0.9997478287488557
0.9997497276227212
0.9997515529402292
0.9997532984285267
0.9997549580530694
0.999756526061404
0.9997579970267662
0.9997593658911503
0.9997606280074129
0.9997617791800639
0.999762815704307
0.999763734402992
0.9997645326610728
0.9997652084572618
0.9997657603925275
0.9997661877151832
0.9997664903422794
0.9997666688771359
0.999766724622802
0.9997666595913826
0.9997664765091148
0.9997661788172372
0.9997657706686338
0.9997652569203954
0.9997646431223718
0.9997639355019331
0.9997631409450844
0.9997622669741857
0.9997613217224297
0.9997603139053076
0.9997592527891229
0.9997581481566405
0.9997570102697124
0.9997558498286454
0.9997546779276525
0.9997535060054549
0.9997523457896765
0.9997512092337151
0.9997501084428781
0.9997490555853432
0.9997480627838263
0.9997471419989961
0.9997463048853755
0.9997455626250178
0.9997449257025037
0.999744404042972
0.9997440068037449
0.9997437438438757
0.9997436253010948
0.9997436651907143
0.9997438751183315
0
0
0.9996917115301351
0.9996915407160949
0.9996912520766476
0.9996908547962058
0.9996903620080585
0.9996897863997427
0.9996891407336107
0.9996884376689318
0.9996876895865358
0.9996869085127713
0.99968610600524
0.9996852929984759
0.9996844797236424
0.9996836756425426
0.9996828894157476
0.9996821289011013
0.9996814011739446
0.9996807125602791
0.9996800686795309
0.9996794744937542
0.9996789343599589
0.9996784520833945
0.9996780309700659
0.9996776738775178
0.9996773832628871
0.999677161227798
0.9996770095595858
0.9996769297687671
0.9996769231225179
0.9996769906742686
0.9996771332893382
0.9996773516668288
0.999677646357794
0.9996780177799616
0.9996784662290854
0.999678991887233
0.99967959482812
0.9996802750198069
0.9996810323248974
0.9996818664985458
0.9996827771844324
0.9996837639090107
0.9996848260741877
0.9996859629487326
0.9996871736585918
0.9996884571763802
0.9996898123102399
0.9996912376923228
0.9996927317670888
0.9996942927796655
0.999695918764462
0.9996976075342727
0.9996993566700576
0.999701163511622
0.9997030251493826
0.9997049384174264
0.9997068998880368
0.9997089058678775
0.9997109523959976
0.9997130352438236
0.9997151499172859
0.9997172916612069
0.9997194554660858
0.9997216360773629
0.999723828007268
0.999726025549291
0.9997282227953412
0.9997304136555802
0.9997325918809427
0.9997347510882826
0.9997368847880966
0.9997389864146999
0.9997410493587494
0.9997430670019252
0.9997450327535988
0.9997469400892415
0.9997487825903367
0.9997505539854951
0.999752248192477
0.9997538593607718
0.9997553819143982
0.9997568105945329
0.9997581405016112
0.9997593671364738
0.999760486440204
0.9997614948322232
0.9997623892463048
0.9997631671640944
0.9997638266458306
0.999764366357898
0.9997647855969707
0.9997650843104351
0.9997652631129352
0.9997653232988097
0.9997652668503549
0.9997650964417828
0.9997648154389032
0.9997644278944984
0.9997639385395123
0.9997633527701127
0.9997626766308194
0.9997619167938179
0.9997610805346931
0.9997601757047051
0.9997592106998173
0.99975819442653
0.9997571362646014
0.9997560460265132
0.999754933913494
0.9997538104676584
0.9997526865196624
0.9997515731306598
0.9997504815273922
0.999749423029547
0.9997484089690796
0.999747450596191
0.9997465589753088
0.9997457448776067
0.9997450187066308
0.9997443903887875
0.9997438695088163
0.9997434654010451
0.9997431877744573
0.9997430467602468
0.9997430550309092
0.9997432217830495
0
0
0.9996927552923344
0.9996924718860388
0.999692094927799
0.9996916314148888
0.9996910913848795
0.9996904847031854
0.999689821954673
0.999689113763354
0.9996883706368932
0.9996876028644464
0.9996868203779085
0.9996860326497566
0.9996852486045487
0.9996844765504672
0.9996837241447443
0.9996829983817076
0.999682305597792
0.9996816514909509
0.9996810411507836
0.9996804790955928
0.999679969313416
0.9996795153052533
0.9996791201286971
0.999678786440877
0.999678516539613
0.9996783124023013
0.9996781757218992
0.9996781079398759
0.9996781102757701
0.9996781837534401
0.999678329223822
0.999678547384404
0.9996788387953423
0.9996792038924905
0.9996796429973506
0.9996801563242359
0.9996807439847109
0.999681405989611
0.9996821422487341
0.9996829525685093
0.9996838366477607
0.9996847940718644
0.9996858243054243
0.9996869266837678
0.9996881004033906
0.9996893445116403
0.9996906578957874
0.9996920392717413
0.999693487172588
0.9996949999371855
0.9996965756989935
0.9996982123753736
0.9996999076575283
0.9997016590013071
0.9997034636190462
0.9997053184726562
0.9997072202681201
0.9997091654515943
0.9997111502072691
0.9997131704571613
0.9997152218629739
0.9997172998301664
0.9997193995143591
0.9997215158301663
0.9997236434625554
0.9997257768807918
0.9997279103550136
0.9997300379754552
0.999732153674316
0.9997342512502305
0.9997363243952904
0.9997383667245013
0.9997403718075758
0.9997423332028735
0.9997442444933302
0.999746099324122
0.9997478914418462
0.9997496147349024
0.9997512632747991
0.999752831358023
0.9997543135481469
0.9997557047177684
0.9997570000899382
0.9997581952786379
0.9997592863279542
0.9997602697495096
0.9997611425578108
0.9997619023030858
0.9997625471013105
0.9997630756610396
0.999763487306793
0.9997637819986822
0.9997639603481044
0.9997640236292686
0.9997639737864719
0.9997638134369874
0.9997635458695793
0.9997631750385975
0.9997627055537702
0.9997621426657255
0.9997614922474365
0.9997607607716861
0.9997599552847822
0.9997590833766388
0.9997581531474328
0.9997571731709004
0.9997561524544004
0.9997551003956625
0.9997540267361482
0.9997529415106804
0.9997518549930912
0.9997507776374073
0.9997497200139176
0.9997486927390543
0.9997477064004257
0.9997467714784429
0.9997458982665514
0.9997450967882151
0.9997443767538194
0.9997437475397198
0.9997432182724367
0.9997427979620905
0.9997424958219405
0.9997423208857518
0.9997422842240647
0.9997423935389362
0
0
0.999693901567964
0.9996934984561696
0.9996930245825859
0.9996924851954584
0.9996918873931457
0.9996912389094933
0.9996905482578718
0.9996898241168437
0.9996890752634338
0.9996883103728423
0.9996875378842857
0.9996867659026475
0.9996860021107283
0.9996852537081579
0.9996845273720978
0.9996838292362192
0.9996831648869644
0.9996825393737317
0.999681957228765
0.9996814224942125
0.999680938753938
0.9996805091682917
0.999680136509983
0.9996798232000511
0.99967957134278
0.9996793827590685
0.9996792590175241
0.9996792014631217
0.999679211242996
0.9996792893294147
0.9996794365396888
0.9996796535531931
0.9996799409253752
0.9996802990989975
0.9996807284125705
0.9996812291062614
0.9996818013252894
0.9996824451211038
0.9996831604504012
0.9996839471722764
0.9996848050435905
0.9996857337128442
0.9996867327126654
0.9996878014511886
0.9996889392024428
0.9996901450960274
0.999691418106199
0.9996927570406359
0.9996941605290173
0.9996956270116693
0.9996971547284266
0.9996987417079501
0.9997003857576514
0.9997020844544553
0.9997038351365548
0.9997056348963774
0.9997074805749073
0.9997093687575742
0.999711295771848
0.9997132576867199
0.999715250314202
0.9997172692129999
0.9997193096944677
0.9997213668309631
0.9997234354666892
0.9997255102310922
0.9997275855548708
0.9997296556886075
0.9997317147240372
0.9997337566179098
0.9997357752183981
0.9997377642939499
0.9997397175644787
0.9997416287347181
0.99974349152958
0.9997452997312695
0.9997470472179341
0.9997487280035399
0.999750336278699
0.9997518664520749
0.9997533131920523
0.9997546714682587
0.999755936592581
0.9997571042592471
0.9997581705836023
0.9997591321391379
0.9997599859924251
0.9997607297355126
0.9997613615154834
0.999761880060772
0.9997622847039848
0.9997625754008947
0.9997627527454283
0.999762817980395
0.9997627730038715
0.9997626203710852
0.9997623632918051
0.9997620056231833
0.9997615518581504
0.9997610071093987
0.9997603770891343
0.9997596680846914
0.9997588869302508
0.9997580409747739
0.9997571380463979
0.9997561864133764
0.9997551947417507
0.9997541720497503
0.999753127659017
0.9997520711425056
0.9997510122689823
0.9997499609439484
0.99974892714731
0.9997479208677601
0.9997469520342874
0.9997460304467978
0.99974516571297
0.9997443671913842
0.9997436439584634
0.9997430048083287
0.9997424582976462
0.9997420127741893
0.9997416766918694
0.9997414580221686
0.9997413657645329
0.9997414064352981
0
0
0.9996951240926674
0.9996945971329478
0.9996940205398785
0.9996933979319125
0.999692734148337
0.999692035143868
0.9996913075195745
0.9996905582472413
0.9996897945082311
0.999689023480934
0.9996882522214972
0.9996874875568637
0.9996867360013056
0.999686003696635
0.9996852963696398
0.9996846193076341
0.9996839773492131
0.999683374887079
0.999682815880177
0.9996823038732169
0.9996818420210603
0.9996814331163977
0.9996810796190012
0.9996807836856435
0.9996805471994916
0.9996803717984912
0.9996802589019764
0.9996802097353346
0.9996802253522352
0.9996803066544659
0.9996804544090627
0.9996806692629081
0.9996809517546138
0.9996813023239304
0.9996817213185926
0.9996822089988725
0.9996827655398174
0.9996833910314622
0.9996840854770266
0.9996848487894018
0.9996856807859577
0.9996865811819794
0.9996875495827865
0.9996885854748311
0.9996896882158488
0.9996908570243548
0.9996920909685697
0.9996933889550518
0.9996947497171469
0.9996961718035131
0.9996976535668418
0.9996991931530304
0.9997007884909261
0.999702437282898
0.9997041369963505
0.9997058848564283
0.9997076778400344
0.9997095126713796
0.9997113858191969
0.9997132934958128
0.9997152316581976
0.9997171960111608
0.9997191820127997
0.9997211848823297
0.9997231996103768
0.9997252209718213
0.999727243541239
0.9997292617109728
0.9997312697118399
0.9997332616364477
0.999735231465071
0.9997371730939993
0.999739080366244
0.9997409471044493
0.999742767145831
0.9997445343789163
0.9997462427818533
0.9997478864619858
0.9997494596964119
0.9997509569731603
0.9997523730326571
0.9997537029090692
0.9997549419711613
0.999756085962227
0.9997571310387166
0.9997580738071077
0.9997589113586605
0.999759641301606
0.999760261790448
0.9997607715519695
0.99976116990767
0.9997614567922961
0.9997616327682678
0.9997616990357415
0.9997616574382016
0.9997615104634283
0.9997612612398314
0.9997609135280853
0.9997604717081696
0.9997599407618413
0.9997593262507237
0.9997586342901108
0.9997578715187407
0.9997570450646689
0.9997561625075247
0.9997552318372716
0.9997542614097474
0.9997532598990553
0.999752236247018
0.9997511996097741
0.9997501593017252
0.9997491247368745
0.9997481053679796
0.9997471106243423
0.9997461498496298
0.9997452322406533
0.9997443667920423
0.9997435622514426
0.9997428270899856
0.9997421694904461
0.9997415973787608
0.9997411183658536
0.9997407399487779
0.9997404691238574
0.9997403130216177
0.9997402769203027
0
0
0.9996963993362112
0.9996957464996323
0.9996950633561648
0.9996943521923618
0.9996936161742258
0.9996928596648518
0.9996920876349935
0.9996913055578254
0.9996905191543696
0.9996897342369863
0.9996889565844865
0.9996881918340997
0.9996874454023369
0.999686722425378
0.9996860277164937
0.9996853657398185
0.9996847405970388
0.9996841560253312
0.9996836154041352
0.9996831217688784
0.9996826778294184
0.9996822859919666
0.9996819483828385
0.9996816668732034
0.9996814431036537
0.9996812785081741
0.9996811743366983
0.9996811316761183
0.9996811514691973
0.9996812345314419
0.9996813815655693
0.999681593173751
0.9996818698673932
0.9996822120747078
0.999682620145923
0.9996830943564314
0.9996836349077818
0.9996842419268271
0.999684915462992
0.9996856554839686
0.9996864618698342
0.9996873344059074
0.9996882727743505
0.9996892765448375
0.999690345164314
0.9996914779461531
0.9996926740587598
0.9996939325139196
0.99969525215495
0.9996966316449534
0.9996980694552399
0.9996995638541999
0.9997011128967264
0.9997027144144431
0.9997043660068465
0.9997060650336167
0.9997078086082042
0.999709593592929
0.9997114165957084
0.999713273968623
0.9997151618084343
0.999717075959233
0.999719012017323
0.9997209653384799
0.9997229310476701
0.9997249040513253
0.9997268790522192
0.9997288505669978
0.9997308129463618
0.9997327603978939
0.9997346870114758
0.9997365867872195
0.9997384536658018
0.9997402815610509
0.9997420643946119
0.9997437961324686
0.9997454708230809
0.9997470826368461
0.9997486259065865
0.9997500951687045
0.999751485204663
0.999752791082373
0.9997540081971225
0.9997551323115863
0.9997561595945362
0.9997570866577851
0.9997579105909848
0.999758628993825
0.9997592400052876
0.9997597423295375
0.9997601352581641
0.9997604186884139
0.9997605931372113
0.9997606597506847
0.9997606203090929
0.9997604772269755
0.9997602335485156
0.9997598929380471
0.9997594596658056
0.999758938588946
0.9997583351280328
0.9997576552390983
0.999756905381552
0.9997560924820992
0.9997552238949882
0.9997543073587681
0.9997533509498978
0.9997523630333868
0.9997513522108072
0.9997503272658573
0.9997492971079058
0.9997482707138637
0.9997472570689805
0.9997462651072183
0.9997453036528897
0.9997443813650989
0.999743506687186
0.9997426878043295
0.9997419326129487
0.9997412486902106
0.9997406433017073
0.9997401233411496
0.9997396953619061
0.9997393653780001
0.9997391390569648
0.9997390205402894
0
0
0.9996977062882568
0.9996969269485235
0.9996961349345576
0.9996953315286855
0.9996945185742656
0.9996936990795391
0.9996928766519924
0.9996920554271265
0.9996912398192971
0.9996904344033013
0.9996896437813303
0.999688872486341
0.9996881249062277
0.9996874052259216
0.99968671738594
0.9996860650553181
0.9996854516162405
0.9996848801590417
0.9996843534851316
0.9996838741163837
0.9996834443090472
0.9996830660711085
0.9996827411815159
0.9996824712105825
0.9996822575404213
0.9996821013850506
0.9996820038093513
0.9996819657467673
0.9996819880151737
0.9996820713309922
0.9996822163211396
0.9996824235330154
0.9996826934422368
0.9996830264583906
0.9996834229286096
0.9996838831392726
0.9996844073157022
0.999684995620179
0.9996856481481893
0.9996863649232334
0.999687145890144
0.9996879909072403
0.9996888997372956
0.9996898720376375
0.9996909073493802
0.9996920050861052
0.9996931645220024
0.999694384779786
0.9996956648184139
0.9996970034209166
0.9996983991823842
0.999699850498403
0.9997013555540131
0.9997029123134665
0.9997045185108666
0.9997061716419674
0.9997078689572115
0.9997096074562744
0.9997113838842039
0.9997131947293971
0.9997150362235008
0.9997169043434493
0.9997187948157251
0.9997207031230092
0.9997226245132891
0.9997245540115541
0.9997264864341063
0.9997284164055653
0.9997303383785554
0.9997322466560918
0.9997341354165992
0.9997359987415066
0.9997378306453045
0.9997396251079189
0.9997413761092289
0.9997430776655098
0.9997447238675568
0.999746308920198
0.9997478271828926
0.9997492732110536
0.9997506417977411
0.9997519280153032
0.9997531272565839
0.9997542352752316
0.9997552482247075
0.9997561626955191
0.9997569757502753
0.9997576849561065
0.9997582884140709
0.9997587847851271
0.999759173312363
0.9997594538391019
0.9997596268226757
0.9997596933435653
0.9997596551097895
0.999759514456359
0.9997592743397776
0.9997589383275158
0.999758510582561
0.9997579958430719
0.9997573993973456
0.9997567270542261
0.9997559851092465
0.999755180306705
0.9997543197980382
0.999753411096732
0.9997524620301786
0.9997514806887517
0.9997504753725496
0.9997494545361245
0.9997484267317147
0.999747400551442
0.9997463845692853
0.9997453872834989
0.9997444170606475
0.9997434820826671
0.9997425902983649
0.9997417493795666
0.9997409666862962
0.9997402492278694
0.9997396036352938
0.9997390361154164
0.9997385523978317
0.9997381575892607
0.999737856194742
0.9997376514529925
0
0
0.9996990260814653
0.999698120554548
0.9996972185019598
0.9996963204296389
0.9996954271083057
0.9996945404328887