# vtk DataFile Version 2.0
2D-ADE data file 
ASCII
DATASET RECTILINEAR_GRID
DIMENSIONS 128 128 1 
X_COORDINATES 128 int
0 1 2 3 4 5 6 7 8 9 10 11 12 13 14 15 16 17 18 19 20 21 22 23 24 25 26 27 28 29 30 31 32 33 34 35 36 37 38 39 40 41 42 43 44 45 46 47 48 49 50 51 52 53 54 55 56 57 58 59 60 61 62 63 64 65 66 67 68 69 70 71 72 73 74 75 76 77 78 79 80 81 82 83 84 85 86 87 88 89 90 91 92 93 94 95 96 97 98 99 100 101 102 103 104 105 106 107 108 109 110 111 112 113 114 115 116 117 118 119 120 121 122 123 124 125 126 127 
Y_COORDINATES 128 int
0 1 2 3 4 5 6 7 8 9 10 11 12 13 14 15 16 17 18 19 20 21 22 23 24 25 26 27 28 29 30 31 32 33 34 35 36 37 38 39 40 41 42 43 44 45 46 47 48 49 50 51 52 53 54 55 56 57 58 59 60 61 62 63 64 65 66 67 68 69 70 71 72 73 74 75 76 77 78 79 80 81 82 83 84 85 86 87 88 89 90 91 92 93 94 95 96 97 98 99 100 101 102 103 104 105 106 107 108 109 110 111 112 113 114 115 116 117 118 119 120 121 122 123 124 125 126 127 
Z_COORDINATES 1 int
0
POINT_DATA 16384
SCALARS density double
LOOKUP_TABLE default
0
0
0
0
0
0
0
0
0
0
0
0
0
0
0
0
0
0
0
0
0
0
0
0
0
0
0
0
0
0
0
0
0
0
0
0
0
0
0
0
0
0
0
0
0
0
0
0
0
0
0
0
0
0
0
0
0
0
0
0
0
0
0
0
0
0
0
0
0
0
0
0
0
0
0
0
0
0
0
0
0
0
0
0
0
0
0
0
0
0
0
0
0
0
0
0
0
0
0
0
0
0
0
0
0
0
0
0
0
0
0
0
0
0
0
0
0
0
0
0
0
0
0
0
0
0
0
0
0
0.9996887891787631
0.9996888338014338
0.9996887370249714
0.9996884573409607
0.9996879973272186
0.9996873926036557
0.999686676388516
0.9996858768066587
0.99968501873332
0.9996841244319197
0.9996832132826172
0.9996823020018875
0.9996814049845751
0.9996805346049167
0.9996797014585747
0.9996789145821642
0.9996781816500708
0.9996775091476519
0.9996769025227381
0.9996763663188711
0.9996759042926407
0.9996755195170671
0.9996752144726659
0.9996749911276629
0.9996748510085495
0.9996747952620305
0.9996748247092205
0.9996749398928683
0.9996751411182564
0.9996754284883675
0.9996758019338209
0.9996762612380538
0.999676806058148
0.9996774359416999
0.9996781503400598
0.9996789486182873
0.9996798300621014
0.9996807938821242
0.9996818392156721
0.9996829651263557
0.9996841706017199
0.9996854545491684
0.9996868157903753
0.9996882530544172
0.9996897649698196
0.9996913500557231
0.9996930067123682
0.9996947332110874
0.999696527683993
0.9996983881135425
0.9997003123221654
0.9997022979621252
0.9997043425057895
0.9997064432364784
0.999708597240058
0.9997108013974391
0.999713052378134
0.9997153466350311
0.9997176804005243
0.9997200496841369
0.9997224502717743
0.9997248777267205
0.9997273273924936
0.9997297943976557
0.9997322736626661
0.9997347599088456
0.9997372476695185
0.9997397313033551
0.9997422050099515
0.9997446628476394
0.9997470987535098
0.9997495065656069
0.9997518800472349
0.999754212913285
0.999756498858474
0.9997587315873645
0.9997609048460091
0.9997630124550356
0.9997650483439773
0.9997670065866244
0.9997688814371628
0.9997706673668335
0.9997723591008562
0.9997739516553259
0.9997754403738083
0.9997768209633272
0.9997780895294721
0.9997792426103242
0.9997802772089431
0.9997811908241349
0.9997819814792861
0.9997826477490217
0.9997831887835272
0.9997836043303651
0.9997838947536962
0.9997840610508294
0.9997841048661013
0.9997840285021202
0.999783834928496
0.9997835277882137
0.9997831114019078
0.9997825907703488
0.9997819715755434
0.9997812601809287
0.9997804636312312
0.9997795896526441
0.9997786466540732
0.9997776437302749
0.999776590667803
0.9997754979547236
0.9997743767950269
0.9997732391285769
0.9997720976572961
0.9997709658784026
0.9997698581221726
0.9997687895891061
0.9997677763782864
0.9997668355312778
0.9997659850182412
0.9997652435152163
0.9997646295892233
0.9997641618830838
0.9997638588593922
0.9997637332082527
0.9997637497665168
0.9997638432708544
0
0
0.9996887413271183
0.9996887875181878
0.9996886876719244
0.9996884256624191
0.9996880213307504
0.9996874914156477
0.9996868595685378
0.9996861493909638
0.9996853830872868
0.9996845803720097
0.9996837588209765
0.9996829339573596
0.9996821193837074
0.9996813269338691
0.9996805668588662
0.9996798479994232
0.999679177943773
0.9996785631710725
0.9996780091817065
0.9996775206144839
0.9996771013515294
0.9996767546120117
0.999676483035668
0.9996762887571524
0.9996761734719515
0.9996761384947225
0.9996761848106547
0.999676313120529
0.999676523879958
0.9996768173333573
0.9996771935430281
0.9996776524138141
0.9996781937136491
0.9996788170903846
0.9996795220851682
0.9996803081427128
0.9996811746186889
0.9996821207845521
0.9996831458300034
0.9996842488633644
0.9996854289100606
0.999686684909458
0.9996880157102387
0.9996894200645448
0.999690896621061
0.9996924439172592
0.9996940603709614
0.9996957442714312
0.9996974937701555
0.9996993068715034
0.9997011814234281
0.9997031151083855
0.9997051054346312
0.9997071497280635
0.999709245124765
0.9997113885644003
0.9997135767846175
0.999715806316599
0.9997180734818983
0.9997203743906911
0.9997227049415712
0.9997250608229947
0.9997274375164878
0.9997298303016992
0.9997322342633912
0.9997346443004197
0.9997370551367725
0.999739461334683
0.999741857309858
0.9997442373487919
0.9997465956281787
0.9997489262363477
0.9997512231966939
0.9997534804929832
0.9997556920964613
0.9997578519946086
0.9997599542214147
0.9997619928889764
0.9997639622202561
0.9997658565827595
0.9997676705229381
0.9997693988010373
0.9997710364261716
0.9997725786913304
0.9997740212080715
0.9997753599405981
0.9997765912389821
0.9997777118712244
0.9997787190539411
0.9997796104813792
0.999780384352591
0.9997810393965164
0.9997815748948382
0.9997819907024411
0.9997822872653984
0.9997824656363977
0.999782527487624
0.9997824751211025
0.99978231147663
0.9997820401374005
0.9997816653335794
0.9997811919440515
0.9997806254967145
0.999779972167683
0.9997792387798821
0.9997784328015112
0.9997775623449661
0.9997766361667443
0.9997756636689455
0.999774654902814
0.999773620574748
0.9997725720547784
0.999771521386923
0.9997704812993661
0.9997694652127954
0.9997684872419582
0.9997675621786322
0.9997667054070072
0.999765932756013
0.9997652602647362
0.9997647039289018
0.9997642780375299
0.999763992751741
0.9997638490599405
0.9997638390832626
0.9997639309378745
0
0
0.9996888366109739
0.9996888877925498
0.9996887884509564
0.9996885412792001
0.9996881711424284
0.999687690421991
0.9996871192609393
0.9996864773087418
0.9996857834281939
0.9996850549041106
0.9996843075865955
0.9996835556842719
0.9996828118111479
0.9996820870849225
0.9996813912526797
0.9996807328092935
0.9996801191176151
0.9996795565244813
0.9996790504694516
0.9996786055848499
0.9996782257872114
0.9996779143604657
0.9996776740310853
0.9996775070357605
0.9996774151819674
0.9996773999020504
0.9996774623011733
0.9996776031996942
0.9996778231702796
0.9996781225702497
0.9996785015694192
0.9996789601738725
0.9996794982458982
0.9996801155204674
0.999680811618458
0.999681586056968
0.9996824382568934
0.9996833675480894
0.9996843731722708
0.9996854542839355
0.999686609949474
0.9996878391447136
0.9996891407510523
0.9996905135504185
0.9996919562192045
0.9996934673213946
0.9996950453010314
0.9996966884742267
0.999698395020863
0.9997001629761743
0.9997019902223564
0.9997038744803789
0.9997058133021514
0.9997078040632
0.9997098439560116
0.99971192998418
0.9997140589575155
0.9997162274882321
0.9997184319883684
0.9997206686685446
0.9997229335381903
0.9997252224073386
0.9997275308900941
0.9997298544098546
0.9997321882063727
0.999734527344706
0.9997368667261208
0.9997392011009614
0.9997415250835249
0.9997438331689125
0.999746119751864
0.999748379147506
0.9997506056139845
0.9997527933768641
0.9997549366552291
0.9997570296893246
0.9997590667696312
0.9997610422671699
0.9997629506648903
0.9997647865899048
0.9997665448463885
0.9997682204488721
0.9997698086557268
0.9997713050025437
0.9997727053351964
0.9997740058422749
0.9997752030866843
0.9997762940360958
0.9997772760920645
0.9997781471175202
0.9997789054624733
0.9997795499876911
0.9997800800862272
0.9997804957026155
0.9997807973496868
0.9997809861228815
0.9997810637121001
0.9997810324110571
0.9997808951242704
0.9997806553717385
0.9997803172915516
0.9997798856405826
0.999779365793596
0.999778763741021
0.9997780860858
0.9997773400396176
0.9997765334189506
0.9997756746412219
0.9997747727214085
0.9997738372691322
0.9997728784861748
0.9997719071638471
0.9997709346793369
0.9997699729877488
0.9997690346050299
0.99976813257444
0.9997672804192079
0.9997664920382258
0.9997657815055219
0.9997651626427984
0.9997646488526336
0.9997642520470108
0.9997639811845324
0.9997638363571554
0.9997638263882723
0.9997639434733874
0
0
0.9996891179640868
0.9996891517145475
0.9996890372077133
0.9996887896387395
0.9996884325865089
0.9996879802433486
0.9996874496597461
0.9996868566888679
0.9996862174299912
0.9996855470905328
0.9996848597319627
0.9996841681181875
0.9996834837665143
0.9996828169652983
0.9996821768307965
0.9996815713862442
0.9996810076519921
0.9996804917345748
0.9996800289133445
0.9996796237233786
0.9996792800333336
0.9996790011176542
0.9996787897228
0.9996786481277253
0.9996785781986
0.9996785814381629
0.9996786590298135
0.999678811876887
0.999679040637256
0.9996793457536902
0.9996797274801205
0.9996801859042198
0.9996807209664261
0.9996813324757989
0.9996820201228231
0.999682783489519
0.9996836220569657
0.9996845352105693
0.9996855222431815
0.9996865823563668
0.9996877146599262
0.999688918169957
0.999690191805548
0.9996915343843737
0.9996929446172916
0.9996944211021781
0.9996959623171212
0.999697566613182
0.999699232206847
0.9997009571723686
0.99970273943412
0.9997045767591477
0.9997064667500457
0.9997084068383264
0.9997103942784115
0.9997124261423955
0.9997144993157191
0.9997166104938743
0.9997187561802787
0.99972093268543
0.9997231361274596
0.9997253624341781
0.9997276073467251
0.9997298664248837
0.9997321350541563
0.9997344084546382
0.9997366816917597
0.999738949688898
0.9997412072419067
0.999743449035522
0.9997456696616699
0.9997478636395843
0.9997500254377283
0.9997521494973884
0.9997542302578938
0.9997562621832866
0.9997582397903605
0.9997601576778495
0.9997620105566511
0.9997637932808258
0.9997655008792242
0.9997671285874618
0.9997686718800589
0.9997701265024479
0.9997714885026567
0.9997727542623545
0.9997739205270708
0.9997749844352783
0.9997759435461677
0.9997767958658162
0.9997775398716187
0.9997781745347132
0.9997786993403174
0.9997791143057562
0.9997794199961642
0.9997796175377053
0.9997797086283688
0.9997796955462595
0.9997795811555241
0.9997793689099148
0.9997790628542169
0.9997786676236157
0.999778188441312
0.9997776311145155
0.9997770020291719
0.9997763081435708
0.9997755569811586
0.9997747566226148
0.9997739156973471
0.9997730433741905
0.9997721493509566
0.9997712438415932
0.9997703375595016
0.9997694416948202
0.9997685678827944
0.9997677281496256
0.9997669348264776
0.9997662004220872
0.9997655375046062
0.9997649583616416
0.99976447455589
0.999764095931885
0.99976383189834
0.9997636880450657
0.9997636808779858
0.9997638172950315
0
0
0.9996895821778444
0.9996895600680966
0.9996894104178444
0.9996891480066958
0.999688789605564
0.9996883495233627
0.999687842377349
0.9996872819389067
0.9996866820368673
0.9996860557746071
0.9996854154683553
0.9996847725028312
0.9996841372738693
0.9996835191627801
0.99968292656923
0.9996823669596
0.9996818469253603
0.9996813722475058
0.9996809479640506
0.9996805784370545
0.9996802674171326
0.9996800181047392
0.9996798332074445
0.9996797149930804
0.9996796653383784
0.9996796857733368
0.9996797775211745
0.9996799415342346
0.9996801785257892
0.999680488998153
0.999680873267105
0.9996813314830216
0.9996818636487496
0.9996824696346014
0.9996831491905154
0.9996839019557431
0.9996847274661075
0.9996856251591757
0.9996865943773948
0.9996876343695095
0.9996887442903178
0.9996899231990575
0.9996911700564894
0.9996924837209477
0.9996938629434303
0.999695306361979
0.9996968124954286
0.9996983797367647
0.9997000063461606
0.9997016904439286
0.9997034300034654
0.9997052228443963
0.9997070666260145
0.9997089588412008
0.9997108968109271
0.9997128776795082
0.999714898410706
0.9997169557848364
0.9997190463969822
0.9997211666564403
0.9997233127875002
0.99972548083166
0.9997276666513717
0.9997298659353903
0.9997320742058069
0.9997342868268094
0.9997364990152351
0.9997387058529194
0.9997409023008827
0.9997430832153243
0.9997452433654355
0.9997473774529554
0.9997494801334591
0.9997515460392448
0.9997535698037869
0.9997555460875739
0.9997574696052606
0.9997593351539162
0.9997611376422593
0.9997628721206272
0.9997645338115406
0.9997661181405763
0.9997676207673974
0.9997690376166146
0.9997703649083293
0.9997715991880192
0.9997727373556113
0.9997737766934115
0.9997747148927443
0.9997755500789943
0.999776280834932
0.9997769062220396
0.9997774257997745
0.9997778396425283
0.9997781483542738
0.999778353080719
0.999778455519036
0.9997784579250387
0.9997783631179616
0.9997781744827803
0.9997778959702927
0.9997775320949754
0.9997770879308778
0.9997765691056105
0.9997759817927137
0.9997753327024353
0.9997746290711559
0.9997738786493603
0.9997730896881669
0.9997722709239583
0.9997714315607097
0.9997705812488897
0.9997697300591896
0.999768888447503
0.9997680672093846
0.9997672774198865
0.9997665303523695
0.9997658373401495
0.9997652096257846
0.9997646581498167
0.9997641934331711
0.9997638248637759
0.9997635621755495
0.9997634140974853
0.999763395083416
0.9997635164409484
0
0
0.9996901946345041
0.9996900971032658
0.9996898965304725
0.9996896029625363
0.9996892287440141
0.9996887864919926
0.9996882884627646
0.9996877466044682
0.9996871726484172
0.9996865778642774
0.9996859729982522
0.9996853680875271
0.999684772387132
0.9996841943433972
0.9996836415961979
0.9996831209965593
0.9996826386421203
0.9996821999227707
0.999681809570835
0.9996814717131699
0.9996811899232829
0.9996809672723532
0.9996808063778404
0.9996807094493813
0.9996806783313407
0.9996807145421123
0.9996808193098141
0.9996809936046551
0.9996812381677754
0.9996815535369202
0.999681940068829
0.9996823979587278
0.9996829272568538
0.9996835278824002
0.9996841996348412
0.9996849422030084
0.999685755171898
0.9996866380275711
0.9996875901601253
0.9996886108650932
0.9996896993432512
0.9996908546991742
0.9996920759385335
0.999693361964447
0.9996947115728996
0.9996961234475115
0.9996975961536922
0.9996991281324341
0.9997007176937965
0.9997023630103151
0.9997040621103919
0.9997058128718945
0.9997076130160206
0.9997094601016384
0.9997113515201669
0.9997132844911925
0.9997152560588887
0.9997172630894072
0.9997193022693245
0.9997213701052823
0.999723462924899
0.9997255768790763
0.9997277079457666
0.9997298519352975
0.9997320044973125
0.999734161129385
0.9997363171873578
0.9997384678974224
0.9997406083699745
0.999742733615216
0.9997448385605212
0.9997469180694852
0.999748966962654
0.9997509800398038
0.9997529521037333
0.9997548779854009
0.9997567525703323
0.999758570826088
0.9997603278306834
0.9997620188017141
0.9997636391260535
0.9997651843898354
0.9997666504085763
0.9997680332571182
0.999769329299242
0.999770535216616
0.9997716480369293
0.9997726651608763
0.9997735843878565
0.9997744039400658
0.9997751224848795
0.9997757391552241
0.999776253567886
0.9997766658394921
0.9997769766001687
0.9997771870046693
0.9997772987410319
0.9997773140366271
0.9997772356617218
0.9997770669304773
0.9997768116995686
0.9997764743643951
0.9997760598531139
0.9997755736184766
0.9997750216277175
0.9997744103504217
0.9997737467445514
0.9997730382404216
0.9997722927225977
0.9997715185091636
0.9997707243277945
0.9997699192874848
0.9997691128450465
0.9997683147638147
0.9997675350607986
0.9997667839374623
0.99976607170149
0.9997654086655692
0.9997648050204582
0.9997642706387324
0.9997638151143269
0.9997634475749286
0.9997631775044573
0.9997630145420364
0.9997629701649793
0.9997630538713954
0
0
0.9996909236625592
0.999690740156587
0.9996904761523101
0.9996901382889486
0.9996897361737661
0.9996892796127048
0.9996887786342015
0.999688243369834
0.9996876837525894
0.9996871094461067
0.999686529717656
0.9996859533119878
0.9996853883847266
0.9996848424532123
0.9996843223749123
0.9996838343501624
0.9996833839411078
0.9996829761001779
0.999682615205154
0.9996823050986399
0.9996820491292135
0.9996818501929481
0.9996817107738649
0.9996816329829343
0.9996816185947373
0.9996816690817882
0.9996817856459741
0.9996819692473474
0.999682220629917
0.9996825403447809
0.9996829287703549
0.9996833861300894
0.9996839125075007
0.9996845078589157
0.9996851720238049
0.9996859047330966
0.9996867056153752
0.9996875742013502
0.9996885099265138
0.999689512132359
0.9996905800660938
0.9996917128792069
0.9996929096248344
0.9996941692542578
0.9996954906125067
0.9996968724333737
0.9996983133338224
0.9996998118080861
0.9997013662214466
0.9997029748039721
0.9997046356442163
0.999706346683141
0.999708105708274
0.9997099103483434
0.9997117580684206
0.9997136461657778
0.9997155717665129
0.9997175318231203
0.9997195231130707
0.9997215422385503
0.9997235856274227
0.9997256495355491
0.9997277300505112
0.9997298230968579
0.9997319244429057
0.9997340297091774
0.9997361343785074
0.999738233807849
0.9997403232418051
0.9997423978278653
0.9997444526333621
0.999746482664075
0.9997484828844676
0.9997504482394517
0.9997523736776208
0.9997542541758094
0.9997560847648879
0.9997578605565993
0.9997595767713263
0.9997612287665467
0.9997628120658449
0.9997643223881968
0.9997657556773822
0.9997671081312104
0.9997683762304058
0.9997695567668202
0.9997706468708262
0.9997716440375463
0.9997725461517925
0.9997733515113806
0.9997740588487216
0.9997746673503755
0.9997751766745229
0.9997755869660622
0.9997758988693504
0.9997761135383473
0.9997762326442278
0.9997762583802896
0.9997761934642806
0.9997760411380168
0.9997758051644832
0.9997754898223188
0.9997750998979172
0.9997746406750497
0.9997741179222398
0.9997735378777501
0.9997729072323336
0.9997722331094603
0.999771523042977
0.9997707849516683
0.9997700271103341
0.9997692581161864
0.9997684868495007
0.9997677224272679
0.9997669741493042
0.9997662514318156
0.9997655637278611
0.9997649204372521
0.9997643308300047
0.9997638039352279
0.9997633485578873
0.9997629733005474
0.999762686790599
0.9997624977137027
0.9997624158058821
0.9997624480321681
0
0
0.9996917425622803
0.9996914666623251
0.9996911304609144
0.9996907388147503
0.9996902986934597
0.9996898174791602
0.9996893032822263
0.9996887644162008
0.9996882091809273
0.9996876457562895
0.9996870820519601
0.9996865256144281
0.9996859835473678
0.9996854624546117
0.9996849684112342
0.9996845069540211
0.999684083085445
0.9996837012891135
0.999683365553219
0.9996830793992605
0.9996828459134509
0.9996826677797721
0.9996825473130476
0.9996824864915658
0.9996824869881772
0.9996825501998531
0.9996826772749945
0.9996828691387044
0.9996831265155355
0.9996834499500462
0.9996838398248066
0.9996842963762602
0.999684819708159
0.9996854098030034
0.9996860665312602
0.9996867896587948
0.999687578852329
0.9996884336833497
0.9996893536303142
0.9996903380795583
0.9996913863247764
0.999692497565466
0.9996936709042203
0.9996949053432463
0.9996961997800112
0.9996975530023693
0.9996989636830934
0.9997004303741442
0.9997019515006182
0.9997035253546813
0.9997051500894553
0.9997068237131342
0.9997085440833211
0.9997103089018373
0.9997121157100083
0.9997139618846613
0.9997158446348439
0.999717760999479
0.999719707845979
0.9997216818700047
0.9997236795963925
0.9997256973814198
0.9997277314164238
0.9997297777329144
0.9997318322091976
0.999733890578609
0.9997359484393653
0.9997380012660996
0.9997400444230734
0.9997420731790774
0.9997440827240112
0.9997460681870965
0.9997480246566957
0.9997499472016338
0.9997518308939813
0.9997536708331394
0.9997554621711524
0.9997572001390512
0.9997588800741186
0.9997604974478354
0.9997620478943761
0.9997635272393753
0.9997649315288143
0.9997662570577134
0.9997675003984825
0.9997686584285854
0.9997697283573747
0.9997707077517478
0.9997715945604974
0.9997723871370061
0.9997730842601962
0.9997736851534003
0.9997741895011051
0.999774597463267
0.999774909687211
0.9997751273168464
0.9997752519992722
0.9997752858885609
0.9997752316468478
0.9997750924425577
0.99977487194596
0.9997745743219068
0.9997742042199788
0.9997737667619024
0.999773267526451
0.9997727125316486
0.9997721082144272
0.9997714614074316
0.9997707793129602
0.9997700694734807
0.9997693397384886
0.9997685982269429
0.9997678532845893
0.9997671134345607
0.9997663873213716
0.9997656836484557
0.9997650111090743
0.999764378306803
0.9997637936900214
0.9997632654976795
0.9997628017426748
0.9997624102460493
0.9997620987044141
0.999761874367573
0.9997617451747549
0.9997617166321409
0
0
0.9996926276793849
0.9996922553552647
0.9996918413010832
0.9996913889446589
0.9996909028744222
0.9996903886956936
0.9996898527443602
0.9996893016693265
0.9996887422978731
0.9996881814487367
0.9996876257929159
0.9996870817602458
0.9996865554563203
0.999686052606864
0.9996855785214548
0.9996851380738083
0.99968473569632
0.9996843753862222
0.9996840607193924
0.9996837948700472
0.9996835806340023
0.9996834204544478
0.9996833164484586
0.9996832704338343
0.9996832839550847
0.9996833583085417
0.9996834945657487
0.9996836935953515
0.9996839560828719
0.9996842825487215
0.9996846733639764
0.9996851287643497
0.9996856488619769
0.9996862336554778
0.9996868830379767
0.9996875968035577
0.9996883746518792
0.999689216191418
0.9996901209411065
0.9996910883308181
0.9996921177004926
0.9996932082983406
0.9996943592779448
0.9996955696946703
0.9996968385012355
0.9996981645428296
0.9996995465516452
0.9997009831411978
0.9997024728003194
0.9997040138871754
0.9997056046232119
0.9997072430873621
0.9997089272104391
0.9997106547700172
0.9997124233857505
0.9997142305154091
0.9997160734515926
0.9997179493193773
0.9997198550748775
0.9997217875049413
0.9997237432279721
0.9997257186960713
0.9997277101984946
0.999729713866588
0.9997317256801915
0.999733741475641
0.9997357569553547
0.9997377676990872
0.9997397691768367
0.9997417567634295
0.9997437257547599
0.9997456713856653
0.9997475888493803
0.9997494733185072
0.9997513199674294
0.9997531239960307
0.9997548806546418
0.999756585270019
0.9997582332722491
0.9997598202223344
0.9997613418403347
0.9997627940337754
0.9997641729261842
0.999765474885424
0.9997666965516845
0.999767834864773
0.999768887090568
0.99976985084627
0.9997707241243223
0.9997715053146439
0.9997721932250783
0.9997727870997084
0.9997732866349929
0.9997736919933973
0.9997740038145361
0.9997742232235272
0.9997743518366458
0.9997743917640145
0.9997743456094875
0.9997742164674969
0.9997740079170804
0.9997737240128831
0.9997733692733857
0.9997729486661614
0.999772467590405
0.9997719318565065
0.9997713476628496
0.9997707215695173
0.9997700604689814
0.9997693715532923
0.9997686622776168
0.9997679403194608
0.9997672135335265
0.9997664899014651
0.9997657774760311
0.9997650843197222
0.9997644184415804
0.9997637877318555
0.999763199900854
0.9997626624342747
0.9997621825553573
0.9997617671780143
0.9997614229949695
0.9997611560710602
0.9997609723967361
0.9997608763375643
0
0
0.999693557763977
0.9996930872507178
0.9996925918780324
0.999692073781851
0.9996915357958015
0.9996909820667824
0.9996904173512691
0.9996898468814789
0.9996892761549893
0.9996887107511625
0.9996881562084378
0.9996876179223456
0.9996871010645372
0.9996866105259915
0.9996861508757902
0.9996857263363679
0.9996853407716824
0.9996849976859199
0.9996847002298328
0.9996844512134175
0.9996842531224821
0.9996841081382064
0.9996840181579573
0.9996839848170364
0.9996840095100671
0.9996840934120383
0.9996842374980534
0.9996844425620328
0.9996847092336508
0.9996850379938831
0.9996854291885938
0.9996858830406289
0.9996863996599304
0.9996869790521878
0.9996876211256042
0.9996883256963098
0.9996890924920567
0.9996899211547127
0.9996908112412399
0.999691762223661
0.9996927734877289
0.9996938443307883
0.9996949739585755
0.9996961614814208
0.9996974059096266
0.9996987061484689
0.9997000609926199
0.9997014691204068
0.999702929087741
0.9997044393221096
0.9997059981164743
0.9997076036234612
0.9997092538497045
0.9997109466506983
0.9997126797260497
0.9997144506154559
0.9997162566953204
0.999718095176311
0.9997199631017778
0.9997218573473186
0.9997237746214194
0.9997257114674152
0.999727664266732
0.9997296292435972
0.9997316024711908
0.9997335798793889
0.9997355572640703
0.9997375302980884
0.9997394945438779
0.999741445467746
0.999743378455807
0.999745288831559
0.9997471718750431
0.9997490228435251
0.9997508369936241
0.9997526096047684
0.9997543360038794
0.9997560115911106
0.9997576318665142
0.9997591924574134
0.9997606891463299
0.999762117899198
0.9997634748937012
0.9997647565474171
0.9997659595456116
0.999767080868324
0.9997681178166024
0.9997690680375095
0.9997699295477729
0.9997707007556996
0.9997713804812649
0.9997719679740014
0.999772462928643
0.9997728654981798
0.9997731763043299
0.9997733964451182
0.9997735274996348
0.9997735715297038
0.999773531078592
0.9997734091665357
0.9997732092832686
0.9997729353773521
0.9997725918425436
0.9997721835009908
0.9997717155835137
0.999771193706733
0.9997706238472657
0.9997700123126847
0.999769365709379
0.9997686909069239
0.9997679949990288
0.9997672852605146
0.9997665691003189
0.9997658540103385
0.9997651475105731
0.9997644570901989
0.9997637901465674
0.9997631539252118
0.9997625554607024
0.9997620015228444
0.9997614985748907
0.9997610526781179
0.9997606694951058
0.9997603540846295
0.9997601108316262
0.999759942996645
0
0
0.9996945141610193
0.9996939452281651
0.9996933665779427
0.9996927793324674
0.999692185064319
0.999691586652132
0.9996909875499798
0.99969039177419
0.9996898036341552
0.999689227601819
0.9996886681857862
0.9996881298302434
0.9996876168378643
0.999687133312016
0.9996866831140298
0.9996862698355412
0.9996858967820103
0.9996855669662834
0.9996852831095608
0.9996850476485905
0.9996848627467861
0.9996847303086726
0.999684651995897
0.9996846292445708
0.9996846632825931
0.999684755147048
0.999684905700631
0.9996851156474107
0.9996853855470936
0.9996857158282361
0.9996861067997169
0.999686558660996
0.9996870715105761
0.9996876453532331
0.9996882801055053
0.9996889756000239
0.9996897315882322
0.9996905477420677
0.9996914236542119
0.9996923588374562
0.9996933527228332
0.9996944046570486
0.9996955138988858
0.9996966796151044
0.9996979008755321
0.9996991766478518
0.9997005057918088
0.9997018870533169
0.9997033190582165
0.9997048003061426
0.999706329164276
0.9997079038614187
0.9997095224821917
0.9997111829617598
0.9997128830809296
0.9997146204619779
0.999716392565088
0.9997181966857276
0.9997200299528607
0.9997218893282999
0.9997237716071063
0.9997256734193142
0.9997275912328984
0.9997295213582241
0.9997314599539078
0.9997334030342829
0.9997353464784041
0.9997372860407415
0.9997392173634856
0.9997411359905708
0.9997430373833278
0.9997449169378116
0.9997467700037098
0.9997485919048086
0.9997503779609123
0.9997521235111247
0.9997538239383711
0.9997554746950063
0.9997570713293678
0.9997586095130616
0.9997600850688166
0.9997614939986428
0.9997628325121252
0.9997640970545292
0.9997652843345547
0.9997663913513751
0.999767415420808
0.999768354200233
0.9997692057121158
0.9997699683657562
0.9997706409771481
0.9997712227865742
0.9997717134738792
0.9997721131710523
0.9997724224721342
0.9997726424401062
0.999772774610839
0.9997728209938018
0.9997727840696791
0.9997726667846292
0.9997724725413951
0.9997722051870331
0.9997718689975174
0.9997714686589918
0.9997710092459611
0.9997704961961665
0.9997699352824337
0.9997693325812038
0.9997686944379857
0.9997680274293734
0.9997673383218483
0.99976663402703
0.9997659215535853
0.9997652079554888
0.9997645002773725
0.9997638054972958
0.9997631304675186
0.9997624818550678
0.9997618660824493
0.9997612892633982
0.9997607571471344
0.9997602750372586
0.999759847682686
0.9997594792158441
0.9997591728321941
0.9997589308529811
0
0
0.9996954805231126
0.9996948139055948
0.9996941511406636
0.999693492616195
0.9996928389368815
0.9996921919383307
0.9996915540152074
0.9996909281252283
0.9996903175415496
0.9996897257533912
0.9996891563373518
0.9996886128680501
0.9996880988441136
0.999687617631474
0.9996871724209386
0.9996867661990009
0.9996864017287321
0.9996860815400831
0.9996858079269377
0.9996855829501494
0.9996854084444425
0.9996852860287486
0.9996852171182224
0.9996852029378487
0.999685244536246
0.9996853427998553
0.9996854984663869
0.9996857121379024
0.9996859842926173
0.9996863152959227
0.9996867054098539
0.9996871548015861
0.9996876635502856
0.9996882316529379
0.9996888590285578
0.999689545521418
0.9996902909027597
0.9996910948716244
0.9996919570543112
0.999692877003091
0.9996938541937245
0.9996948880223959
0.9996959778016395
0.9996971227558579
0.9996983220160383
0.99969957461424
0.9997008794774993
0.9997022354216897
0.9997036411450196
0.9997050952216868
0.9997065960953896
0.9997081420731982
0.9997097313195146
0.9997113618505914
0.9997130315293771
0.9997147380611234
0.9997164789895538
0.9997182516939955
0.9997200533873002
0.9997218811149291
0.9997237317550436
0.9997256020199405
0.9997274884586976
0.9997293874613222
0.9997312952642881
0.9997332079576967
0.9997351214939707
0.9997370316982573
0.9997389342804431
0.9997408248489199
0.9997426989259848
0.9997445519649542
0.9997463793688715
0.9997481765108158
0.999749938755685
0.999751661483382
0.9997533401132686
0.9997549701297461
0.9997565471088062
0.9997580667453492
0.9997595248810944
0.9997609175328229
0.9997622409207612
0.9997634914967988
0.9997646659723475
0.9997657613454857
0.9997667749272128
0.9997677043664283
0.9997685476734784
0.9997693032418732
0.9997699698680608
0.9997705467688556
0.9997710335964594
0.9997714304506952
0.9997717378884503
0.999771956929977
0.9997720890621253
0.9997721362381835
0.9997721008744839
0.9997719858434824
0.9997717944635409
0.9997715304851539
0.9997711980739037
0.9997708017899081
0.9997703465640821
0.9997698376709697
0.9997692806984896
0.9997686815143249
0.9997680462293003
0.999767381157454
0.9997666927731265
0.9997659876647986
0.9997652724861132
0.9997645539038861
0.9997638385436176
0.9997631329328202
0.9997624434426242
0.9997617762275903
0.9997611371648105
0.9997605317881008
0.9997599652120268
0.999759442068513
0.9997589663584463
0.999758541422202
0.9997581695538619
0.999757852375198
0
0
0.9996964424342943
0.9996956794757821
0.9996949325815409
0.9996942015946734
0.9996934863647395
0.9996927878994081
0.9996921077117846