# vtk DataFile Version 2.0
2D-ADE data file 
ASCII
DATASET RECTILINEAR_GRID
DIMENSIONS 128 128 1 
X_COORDINATES 128 int
0 1 2 3 4 5 6 7 8 9 10 11 12 13 14 15 16 17 18 19 20 21 22 23 24 25 26 27 28 29 30 31 32 33 34 35 36 37 38 39 40 41 42 43 44 45 46 47 48 49 50 51 52 53 54 55 56 57 58 59 60 61 62 63 64 65 66 67 68 69 70 71 72 73 74 75 76 77 78 79 80 81 82 83 84 85 86 87 88 89 90 91 92 93 94 95 96 97 98 99 100 101 102 103 104 105 106 107 108 109 110 111 112 113 114 115 116 117 118 119 120 121 122 123 124 125 126 127 
Y_COORDINATES 128 int
0 1 2 3 4 5 6 7 8 9 10 11 12 13 14 15 16 17 18 19 20 21 22 23 24 25 26 27 28 29 30 31 32 33 34 35 36 37 38 39 40 41 42 43 44 45 46 47 48 49 50 51 52 53 54 55 56 57 58 59 60 61 62 63 64 65 66 67 68 69 70 71 72 73 74 75 76 77 78 79 80 81 82 83 84 85 86 87 88 89 90 91 92 93 94 95 96 97 98 99 100 101 102 103 104 105 106 107 108 109 110 111 112 113 114 115 116 117 118 119 120 121 122 123 124 125 126 127 
Z_COORDINATES 1 int
0
POINT_DATA 16384
SCALARS density double
LOOKUP_TABLE default
0
0
0
0
0
0
0
0
0
0
0
0
0
0
0
0
0
0
0
0
0
0
0
0
0
0
0
0
0
0
0
0
0
0
0
0
0
0
0
0
0
0
0
0
0
0
0
0
0
0
0
0
0
0
0
0
0
0
0
0
0
0
0
0
0
0
0
0
0
0
0
0
0
0
0
0
0
0
0
0
0
0
0
0
0
0
0
0
0
0
0
0
0
0
0
0
0
0
0
0
0
0
0
0
0
0
0
0
0
0
0
0
0
0
0
0
0
0
0
0
0
0
0
0
0
0
0
0
0
0.9996881154799956
0.9996881862150322
0.9996880974911091
0.9996877904517247
0.999687258643785
0.9996865407910959
0.9996856746653869
0.9996846930401082
0.999683625352218
0.9996824983183188
0.9996813354391999
0.9996801571621354
0.9996789812208168
0.9996778229554929
0.9996766955763551
0.9996756104105958
0.999674577129414
0.9996736039520506
0.9996726978274383
0.9996718645964161
0.9996711091364597
0.999670435490609
0.9996698469820662
0.9996693463158477
0.999668935668648
0.999668616767962
0.9996683909613586
0.9996682592767313
0.9996682224742371
0.9996682810906002
0.9996684354763717
0.9996686858267124
0.9996690322062155
0.9996694745682574
0.9996700127693386
0.9996706465788524
0.9996713756846959
0.9996721996951268
0.9996731181372436
0.9996741304524666
0.9996752359893666
0.9996764339941928
0.9996777235994337
0.9996791038107319
0.9996805734924705
0.9996821313523391
0.9996837759251751
0.9996855055563745
0.9996873183851552
0.9996892123279483
0.9996911850621932
0.9996932340107912
0.9996953563274829
0.9996975488833885
0.9996998082549611
0.999702130713576
0.9997045122169838
0.9997069484028372
0.9997094345844892
0.9997119657492508
0.9997145365592794
0.9997171413552519
0.9997197741629583
0.9997224287029316
0.9997250984032098
0.9997277764152939
0.9997304556333514
0.9997331287166704
0.9997357881153599
0.9997384260992374
0.9997410347898315
0.999743606195379
0.9997461322486725
0.9997486048475671
0.99975101589793
0.99975335735878
0.9997556212893247
0.9997577998975776
0.9997598855902108
0.999761871023259
0.9997637491532896
0.999765513288611
0.9997671571401003
0.9997686748712028
0.9997700611466687
0.9997713111795896
0.999772420776305
0.999773386378771
0.9997742051040056
0.9997748747802538
0.9997753939795618
0.9997757620464778
0.9997759791226749
0.9997760461673214
0.999775964973107
0.9997757381778951
0.9997753692720469
0.999774862601538
0.9997742233670684
0.9997734576194518
0.9997725722516523
0.9997715749879098
0.9997704743704916
0.9997692797446596
0.9997680012425363
0.9997666497665838
0.9997652369734588
0.9997637752590157
0.999762277745189
0.9997607582693954
0.9997592313768081
0.9997577123154912
0.9997562170337544
0.9997547621786315
0.9997533650892354
0.9997520437756895
0.9997508168688997
0.9997497035623247
0.9997487234256593
0.9997478959112108
0.9997472391070732
0.9997467697504107
0.9997465017833496
0.9997464377242231
0.9997465149215042
0.9997466454446537
0
0
0.9996880450595846
0.9996881157866927
0.9996880159096162
0.999687720771662
0.9996872476974995
0.9996866135080871
0.9996858442972939
0.9996849671377136
0.9996840080628686
0.9996829905289943
0.9996819356769784
0.9996808623480319
0.9996797871784394
0.99967872473717
0.9996776877189123
0.9996766871321197
0.9996757324768768
0.9996748319107457
0.9996739924026858
0.9996732198739131
0.9996725193258281
0.9996718949556906
0.9996713502607305
0.9996708881314912
0.9996705109350739
0.9996702205890294
0.999670018626509
0.9996699062533269
0.9996698843974713
0.9996699537516422
0.9996701148092769
0.9996703678945886
0.9996707131870283
0.9996711507406358
0.9996716804986683
0.9996723023039207
0.9996730159051014
0.9996738209596517
0.999674717033339
0.9996757035969908
0.9996767800206857
0.999677945565738
0.999679199374777
0.9996805404602437
0.9996819676915886
0.9996834797814727
0.9996850752712495
0.9996867525160106
0.9996885096694608
0.9996903446688914
0.9996922552205113
0.9996942387853786
0.9996962925661906
0.9996984134951583
0.9997005982232056
0.9997028431107017
0.9997051442199539
0.9997074973096485
0.9997098978314426
0.9997123409288696
0.9997148214387386
0.9997173338951532
0.9997198725363035
0.9997224313141112
0.9997250039068445
0.9997275837347414
0.9997301639787
0.9997327376020299
0.9997352973752679
0.9997378359039816
0.9997403456595183
0.9997428190125509
0.999745248269304
0.9997476257102678
0.9997499436311932
0.9997521943861227
0.9997543704321842
0.9997564643758403
0.9997584690202682
0.9997603774134975
0.999762182896954
0.9997638791539877
0.9997654602580006
0.9997669207197428
0.9997682555333759
0.9997694602208744
0.9997705308743827
0.9997714641961171
0.9997722575354776
0.9997729089230079
0.99977341710093
0.9997737815499792
0.9997740025123468
0.9997740810105642
0.9997740188622468
0.9997738186906502
0.9997734839310913
0.9997730188333175
0.9997724284600177
0.9997717186816988
0.9997708961682596
0.9997699683776206
0.9997689435418611
0.9997678306513377
0.9997666394373133
0.999765380353624
0.9997640645579121
0.999762703892871
0.9997613108678463
0.9997598986408713
0.9997584810009199
0.9997570723494283
0.9997556876790139
0.9997543425453295
0.9997530530276745
0.999751835668906
0.9997507073736511
0.9997496852049603
0.9997487860793198
0.9997480263343261
0.9997474211024395
0.9997469820151736
0.9997467137281758
0.999746609169091
0.99974664438053
0.9997467743736438
0
0
0.999688134062253
0.999688216036993
0.9996881159583831
0.9996878343919291
0.999687397892622
0.9996868187033003
0.9996861191057264
0.999685321585592
0.9996844481456909
0.9996835192303695
0.9996825538020034
0.9996815690163987
0.9996805802196204
0.999679601025823
0.9996786434407732
0.9996777179852147
0.9996768338268806
0.999675998912406
0.9996752200942001
0.9996745032494624
0.9996738533907388
0.9996732747677632
0.9996727709604363
0.9996723449631938
0.9996719992609892
0.9996717358973422
0.9996715565347912
0.9996714625082286
0.99967145487147
0.9996715344375414
0.9996717018130162
0.9996719574268662
0.9996723015541485
0.999672734334956
0.9996732557889441
0.9996738658258342
0.9996745642521963
0.9996753507748758
0.9996762250013677
0.9996771864374756
0.999678234482542
0.99967936842258
0.9996805874215702
0.9996818905112401
0.9996832765795886
0.9996847443584364
0.999686292410278
0.9996879191146886
0.9996896226545535
0.9996914010023641
0.9996932519068357
0.9996951728800763
0.9996971611855556
0.9996992138270824
0.9997013275390332
0.9997034987780189
0.9997057237162177
0.9997079982365447
0.9997103179298623
0.9997126780943741
0.9997150737373919
0.9997174995795797
0.9997199500618296
0.9997224193548456
0.9997249013715475
0.9997273897823225
0.9997298780331974
0.9997323593669021
0.9997348268468491
0.9997372733839397
0.9997396917661622
0.9997420746908336
0.9997444147993859
0.9997467047144851
0.9997489370793228
0.9997511045987975
0.9997532000823779
0.9997552164882977
0.9997571469688177
0.9997589849161653
0.9997607240088394
0.9997623582578499
0.9997638820525573
0.9997652902056672
0.9997665779970228
0.9997677412157665
0.9997687762005188
0.9997696798771731
0.9997704497939935
0.9997710841536647
0.9997715818420342
0.9997719424532824
0.9997721663113394
0.9997722544873751
0.9997722088132933
0.9997720318911629
0.999771727098635
0.9997712985904053
0.9997707512958889
0.999770090913289
0.9997693239003484
0.9997684574620656
0.9997674995357617
0.9997664587738493
0.9997653445247282
0.9997641668121486
0.9997629363134004
0.9997616643365081
0.9997603627964962
0.9997590441903883
0.999757721570231
0.999756408512744
0.9997551190833736
0.9997538677894283
0.9997526695148387
0.9997515394266642
0.9997504928518293
0.9997495450668269
0.99974871094383
0.9997480043437843
0.9997474377666905
0.9997470209171682
0.9997467582436063
0.9997466434331597
0.9997466791267366
0.9997468510542602
0
0
0.9996884420144803
0.9996885122895233
0.9996883977225627
0.9996881151525477
0.9996876922998442
0.9996871446876416
0.9996864916019311
0.9996857512100163
0.9996849422908778
0.9996840828156139
0.9996831895714787
0.999682277922095
0.9996813618286955
0.9996804538405079
0.999679565139562
0.9996787056188451
0.9996778839793686
0.999677107830063
0.9996763837878818
0.9996757175757168
0.9996751141159809
0.9996745776185484
0.9996741116623085
0.9996737192701998
0.9996734029775389
0.9996731648938214
0.9996730067580513
0.9996729299879352
0.9996729357231044
0.9996730248627496
0.9996731980978837
0.9996734559386297
0.9996737987367625
0.9996742267039033
0.9996747399255974
0.9996753383716626
0.9996760219030429
0.9996767902755305
0.9996776431405958
0.9996785800436695
0.9996796004201122
0.9996807035891953
0.9996818887463327
0.9996831549538605
0.9996845011306088
0.9996859260405402
0.9996874282807001
0.9996890062687354
0.9996906582302177
0.9996923821860236
0.9996941759399955
0.9996960370671175
0.9996979629024336
0.9996999505309138
0.9997019967784999
0.9997040982045087
0.999706251095611
0.9997084514615562
0.9997106950328293
0.9997129772603911
0.999715293317669
0.9997176381049099
0.9997200062560441
0.999722392148127
0.9997247899134754
0.9997271934545183
0.9997295964614399
0.9997319924325827
0.9997343746976343
0.9997367364435169
0.9997390707429427
0.9997413705854917
0.9997436289111244
0.9997458386459137
0.9997479927398484
0.9997500842064425
0.9997521061639317
0.9997540518777396
0.9997559148039422
0.999757688633367
0.9997593673360137
0.9997609452053926
0.9997624169024486
0.9997637774986409
0.9997650225178427
0.9997661479766327
0.9997671504226515
0.9997680269706227
0.9997687753357427
0.9997693938640936
0.9997698815598333
0.9997702381088901
0.9997704638990033
0.9997705600359105
0.9997705283556322
0.9997703714327576
0.9997700925847851
0.9997696958725334
0.9997691860967908
0.9997685687913211
0.9997678502124938
0.9997670373257436
0.9997661377891931
0.9997651599346867
0.9997641127465727
0.9997630058384386
0.999761849428012
0.9997606543102179
0.9997594318282731
0.9997581938422972
0.9997569526944973
0.9997557211689487
0.9997545124435322
0.9997533400306345
0.9997522177014976
0.9997511593767205
0.9997501789722073
0.9997492901935043
0.9997485063234641
0.9997478397270262
0.999747301227227
0.9997468990427333
0.9997466402259433
0.9997465269046555
0.9997465751242641
0.9997467890643672
0
0
0.9996889768846031
0.9996889882344253
0.9996888354350264
0.9996885362440859
0.9996881113625227
0.9996875772772187
0.9996869509905146
0.9996862485030382
0.9996854860659588
0.9996846792045654
0.9996838426270255
0.9996829900237477
0.9996821339737749
0.9996812858909215
0.9996804560461872
0.9996796536131964
0.9996788867294121
0.9996781625675434
0.9996774874132001
0.9996768667438455
0.9996763053062117
0.9996758071907969
0.9996753759022781
0.9996750144252942
0.9996747252850504
0.9996745106027062
0.9996743721453768
0.9996743113709394
0.999674329467634
0.9996744273887721
0.9996746058826264
0.9996748655178621
0.9996752067046388
0.9996756297117485
0.9996761346799524
0.9996767216318779
0.9996773904786578
0.9996781410236547
0.9996789729634721
0.9996798858865751
0.9996808792697277
0.999681952472555
0.9996831047304382
0.9996843351460406
0.9996856426796664
0.9996870261387368
0.9996884841665923
0.9996900152308772
0.9996916176117273
0.999693289389995
0.9996950284357325
0.9996968323971525
0.9996986986902829
0.9997006244895206
0.9997026067192888
0.9997046420469948
0.9997067268774772
0.9997088573491151
0.9997110293317806
0.9997132384267817
0.9997154799689543
0.9997177490310152
0.9997200404303216
0.9997223487381031
0.9997246682912769
0.9997269932068771
0.999729317399161
0.9997316345993745
0.9997339383782002
0.999736222170801
0.9997384793044388
0.9997407030285237
0.9997428865470066
0.9997450230529157
0.9997471057648912
0.9997491279654539
0.9997510830408078
0.9997529645218575
0.999754766126189
0.9997564818006437
0.9997581057641975
0.9997596325507393
0.9997610570514311
0.9997623745562259
0.999763580794223
0.9997646719724259
0.999765644812604
0.9997664965858416
0.9997672251445078
0.9997678289512818
0.9997683071050099
0.9997686593631091
0.9997688861603673
0.999768988623925
0.9997689685843965
0.9997688285830082
0.9997685718748097
0.9997682024279382
0.9997677249190887
0.9997671447252774
0.9997664679121212
0.9997657012188006
0.9997648520399763
0.9997639284048463
0.9997629389536052
0.9997618929114112
0.9997608000600036
0.9997596707068359
0.9997585156515
0.9997573461487874
0.999756173867547
0.9997550108437295
0.9997538694249937
0.9997527622024512
0.9997517019273365
0.9997507014072538
0.9997497733725348
0.9997489302734243
0.999748184072214
0.9997475459739269
0.9997470262598146
0.9997466334772207
0.9997463765631983
0.9997462630681051
0.9997463090997187
0.9997465264664117
0
0
0.9996897019055164
0.9996896285033013
0.9996894180311293
0.9996890832080871
0.9996886396329714
0.9996881024391817
0.9996874863002673
0.9996868053502951
0.9996860735179985
0.9996853042314213
0.9996845103641534
0.9996837039995315
0.9996828963318894
0.9996820976224932
0.9996813171922874
0.9996805634344978
0.9996798438510819
0.9996791651033946
0.9996785330701627
0.9996779529090651
0.999677429119511
0.9996769656048077
0.9996765657320487
0.9996762323889754
0.9996759680370164
0.9996757747603245
0.9996756543104021
0.9996756081464161
0.9996756374710312
0.9996757432620024
0.9996759262994939
0.9996761871894269
0.999676526382909
0.999676944192076
0.9996774408024367
0.9996780162820726
0.9996786705878054
0.9996794035686776
0.9996802149668853
0.9996811044164947
0.9996820714400875
0.9996831154436661
0.9996842357099633
0.999685431390472
0.9996867014963546
0.9996880448885209
0.9996894602670474
0.9996909461602067
0.9996925009132893
0.9996941226774614
0.9996958093988525
0.9996975588080965
0.9996993684105207
0.9997012354771908
0.9997031570369994
0.9997051298699969
0.999707150502138
0.999709215201621
0.9997113199769941
0.9997134605771644
0.9997156324934753
0.9997178309639629
0.999720050979924
0.9997222872948757
0.9997245344360066
0.999726786718157
0.9997290382603945
0.9997312830051623
0.9997335147400346
0.999735727121992
0.9997379137042008
0.999740067965158
0.9997421833401171
0.9997442532546049
0.9997462711598877
0.9997482305701243
0.9997501251010237
0.9997519485096795
0.9997536947353507
0.9997553579408105
0.9997569325539976
0.999758413309551
0.9997597952899347
0.9997610739657197
0.9997622452347106
0.9997633054594928
0.9997642515030939
0.9997650807623503
0.9997657911987164
0.99976638136614
0.9997668504357964
0.9997671982173728
0.9997674251767631
0.9997675324499462
0.9997675218529984
0.999767395888101
0.9997671577455928
0.9997668113020218
0.999766361114336
0.9997658124102661
0.9997651710750999
0.999764443634973
0.9997636372369173
0.9997627596257923
0.9997618191183278
0.9997608245743246
0.9997597853650948
0.9997587113389925
0.9997576127838167
0.9997565003854549
0.9997553851818759
0.9997542785111664
0.9997531919523522
0.9997521372559047
0.9997511262596149
0.9997501707856444
0.9997492825292594
0.9997484729208157
0.9997477529651775
0.9997471330213423
0.9997466229262353
0.9997462317901081
0.9997459693718456
0.9997458456890308
0.9997458743400424
0.9997460665851806
0
0
0.9996905814047523
0.9996904085804992
0.9996901244696617
0.9996897378034363
0.9996892610837644
0.9996887064855067
0.99968808628482
0.9996874126914455
0.9996866976537379
0.9996859527829088
0.9996851892359487
0.9996844175664648
0.9996836476466896
0.9996828886042676
0.9996821487920333
0.9996814357871227
0.9996807564107639
0.9996801167604067
0.9996795222508968
0.9996789776617556
0.9996784871873099
0.9996780544877072
0.9996776827391017
0.9996773746821943
0.9996771326681078
0.9996769587012866
0.9996768544788669
0.9996768214265189
0.9996768607304751
0.9996769733659259
0.9996771601216383
0.9996774216210786
0.9996777583399931
0.9996781706207695
0.9996786586835935
0.999679222634742
0.9996798624720681
0.999680578088019
0.9996813692702715
0.9996822357003169
0.9996831769501003
0.999684192477036
0.9996852816175149
0.999686443579215
0.9996876774323412
0.9996889821000848
0.9996903563484503
0.9996917987757135
0.9996933078016694
0.9996948816569194
0.9996965183723621
0.9996982157691224
0.9996999714490832
0.9997017827862416
0.9997036469190536
0.9997055607439704
0.9997075209103298
0.9997095238167792
0.9997115656093964
0.9997136421816475
0.999715749176341
0.999717881989693
0.9997200357776282
0.999722205464408
0.9997243857536788
0.9997265711419848
0.9997287559348104
0.9997309342651404
0.9997331001145652
0.9997352473368605
0.9997373696840202
0.9997394608346128
0.9997415144243855
0.9997435240789252
0.9997454834482371
0.9997473862430019
0.9997492262723072
0.9997509974825514
0.9997526939972823
0.9997543101576054
0.9997558405628836
0.9997572801113335
0.9997586240402065
0.9997598679651369
0.9997610079183396
0.9997620403852326
0.9997629623391779
0.9997637712739313
0.9997644652335326
0.99976504283926
0.9997655033134306
0.9997658464997385
0.9997660728799795
0.9997661835869284
0.9997661804133086
0.9997660658167056
0.9997658429204569
0.9997655155104586
0.9997650880280187
0.9997645655587691
0.9997639538178433
0.999763259131392
0.9997624884146745
0.9997616491468064
0.9997607493423866
0.9997597975200132
0.9997588026677908
0.999757774205652
0.9997567219443422
0.9997556560406007
0.9997545869479849
0.9997535253621184
0.999752482159238
0.9997514683271091
0.9997504948880028
0.9997495728084904
0.9997487128988694
0.9997479257081985
0.9997472214496883
0.9997466098912289
0.9997461004739999
0.9997457023939056
0.999745425170328
0.9997452786920227
0.9997452751734738
0.9997454234652141
0
0
0.9996915846565768
0.9996913029214503
0.9996909334247882
0.9996904827847732
0.9996899604966694
0.9996893759876951
0.999688739405552
0.999688060967686
0.9996873507950237
0.9996866188086951
0.9996858745897096
0.9996851272783643
0.9996843854870495
0.9996836572337139
0.9996829499081612
0.9996822702603614
0.9996816244050686
0.9996810178403486
0.9996804554763105
0.9996799416705004
0.9996794802670174
0.999679074637773
0.999678727724067
0.9996784420775634
0.9996782198995122
0.9996780630778753
0.9996779732216656
0.9996779516924574
0.999677999632665
0.9996781179907387
0.9996783075430336
0.9996785689126255
0.9996789025849295
0.9996793089204479
0.999679788164585
0.9996803404548722
0.9996809658255922
0.9996816642101514
0.9996824354412275
0.9996832792490331
0.9996841952577428
0.9996851829804285
0.9996862418125573
0.9996873710243834
0.9996885697523156
0.9996898369895634
0.9996911715761669
0.9996925721886901
0.9996940373296989
0.9996955653172906
0.999697154274799
0.9996988021209288
0.9997005065604567
0.999702265075726
0.9997040749190833
0.9997059331064678
0.9997078364122978
0.9997097813658445
0.9997117642492354
0.9997137810972551
0.9997158276990706
0.9997178996020193
0.999719992117576
0.9997221003295931
0.99972421910491
0.9997263431063824
0.9997284668083936
0.9997305845148499
0.999732690379678
0.9997347784297772
0.9997368425903912
0.9997388767127884
0.9997408746041719
0.9997428300596367
0.9997447368960437
0.9997465889875587
0.9997483803026804
0.9997501049424348
0.9997517571795187
0.9997533314980157
0.9997548226334161
0.99975622561254
0.9997575357930554
0.9997587489021664
0.9997598610741576
0.9997608688863595
0.99976176939323
0.999762560158132
0.9997632392825369
0.9997638054322667
0.9997642578605541
0.9997645964275919
0.9997648216164322
0.9997649345449641
0.9997649369739283
0.9997648313107794
0.9997646206094416
0.9997643085658676
0.9997638995095264
0.9997633983908109
0.9997628107645696
0.9997621427698037
0.9997614011057718
0.9997605930045671
0.9997597262003849
0.9997588088954985
0.9997578497230828
0.9997568577067589
0.9997558422168091
0.9997548129226821
0.9997537797415497
0.9997527527823898
0.9997517422849618
0.9997507585525195
0.9997498118794568
0.9997489124751374
0.9997480703856502
0.99974729541136
0.9997465970607226
0.9997459845247263
0.9997454667470236
0.9997450525432727
0.9997447508853802
0.9997445705290139
0.9997445220744929
0.9997446128936925
0
0
0.9996926840082982
0.9996922867946225
0.999691823836687
0.9996913000643151
0.9996907221382964
0.9996900974200824
0.9996894340426985
0.999688740331537
0.9996880247253132
0.9996872955786528
0.999686561027242
0.9996858288901594
0.9996851065828848
0.9996844010571116
0.9996837187618048
0.9996830656222531
0.999682447035835
0.9996818678813191
0.9996813325374673
0.9996808449086133
0.9996804084547615
0.9996800262246084
0.9996797008895837
0.9996794347780772
0.9996792299086318
0.999679088021759
0.9996790106095661
0.9996789989431538
0.9996790540972793
0.9996791769724167
0.9996793683139011
0.9996796287284037
0.9996799586975335
0.999680358588883
0.9996808286643946
0.9996813690863904
0.9996819799211963
0.9996826611407218
0.9996834126219544
0.9996842341447367
0.999685125387815
0.9996860859235097
0.9996871152110299
0.9996882125887661
0.9996893772656004
0.9996906083115594
0.9996919046478631
0.9996932650366741
0.9996946880706281
0.9996961721624253
0.9996977155345809
0.9996993162095955
0.9997009720006566
0.9997026805031186
0.9997044390868759
0.9997062448898624
0.9997080948127939
0.9997099855153653
0.9997119134140249
0.9997138746815053
0.9997158652482302
0.9997178808057455
0.9997199168122847
0.9997219685005743
0.99972403088797
0.9997260987889858
0.9997281668302772
0.9997302294680921
0.9997322810082058
0.9997343156283
0.9997363274027563
0.9997383103297647
0.9997402583606557
0.9997421654312996
0.9997440254954257
0.9997458325596327
0.9997475807198931
0.9997492641992611
0.9997508773865323
0.9997524148755064
0.9997538715045706
0.999755242396199
0.9997565229960605
0.9997577091113056
0.9997587969477097
0.9997597831452315
0.9997606648116776
0.9997614395540397
0.9997621055072284
0.9997626613598058
0.9997631063764841
0.9997634404170582
0.9997636639516071
0.9997637780716985
0.9997637844975312
0.9997636855808224
0.9997634843034706
0.9997631842718935
0.9997627897071616
0.9997623054309018
0.9997617368471774
0.999761089920371
0.9997603711493259
0.9997595875377993
0.9997587465614792
0.9997578561316005
0.9997569245553383
0.9997559604929415
0.999754972911691
0.9997539710364955
0.9997529642970361
0.9997519622712228
0.9997509746252425
0.999750011050066
0.9997490811947191
0.9997481945980335
0.9997473606255279
0.9997465884114011
0.9997458868216246
0.9997452644475767
0.9997447296394893
0.9997442905246484
0.9997439552906001
0.9997437316235209
0.9997436280847445
0.999743650876057
0
0
0.9996938541182205
0.9996933376976409
0.9996927758840953
0.9996921720409867
0.9996915306631176
0.9996908573932731
0.9996901585150348
0.9996894407013163
0.9996887108451966
0.999687975852802
0.999687242523353
0.9996865174431122
0.9996858069023389
0.9996851168359131
0.9996844527808451
0.9996838198516341
0.9996832227303829
0.9996826656687204
0.9996821524987131
0.9996816866510081
0.9996812711776473
0.999680908778161
0.9996806018271637
0.9996803524027106
0.9996801623141442
0.999680033129101
0.999679966198813
0.9996799626816698
0.9996800235644574
0.9996801496814165
0.9996803417307206
0.9996806002886385
0.9996809258211045
0.9996813186930193
0.9996817791750965
0.9996823074486081
0.9996829036079045
0.9996835676610757
0.999684299528671
0.9996850990408418
0.9996859659328651
0.9996868998394001
0.999687900287458
0.9996889666884354
0.9996900983292064
0.9996912943626133
0.9996925537973724
0.9996938754877144
0.9996952581228006
0.9996967002162185
0.999698200095612
0.9996997558927361
0.9997013655340055
0.9997030267318122
0.9997047369766944
0.9997064935306088
0.9997082934214043
0.9997101334387252
0.9997120101314422
0.9997139198068205
0.9997158585315158
0.9997178221345797
0.9997198062125585
0.9997218061368176
0.9997238170631723
0.9997258339439039
0.9997278515422149
0.9997298644491547
0.9997318671030245
0.9997338538112454
0.9997358187746432
0.9997377561140748
0.9997396598992974
0.9997415241799328
0.9997433430183817
0.9997451105244612
0.9997468208915734
0.9997484684341043
0.9997500476258135
0.9997515531388567
0.999752979883152
0.9997543230456909
0.9997555781294686
0.9997567409916073
0.9997578078803335
0.9997587754703642
0.9997596408963807
0.9997604017841456
0.9997610562789742
0.999761603071151
0.9997620414180516
0.9997623711626116
0.9997625927479815
0.9997627072280786
0.9997627162739632
0.9997626221758329
0.9997624278406629
0.9997621367853751
0.999761753125655
0.9997612815603867
0.9997607273519112
0.9997600963021376
0.9997593947247752
0.9997586294137499
0.9997578076080952
0.9997569369533775
0.999756025459928
0.9997550814578917
0.9997541135493092
0.9997531305572273
0.9997521414720468
0.999751155395058
0.9997501814795413
0.9997492288701086
0.9997483066415677
0.9997474237380466
0.9997465889169219
0.9997458107019372
0.9997450973496312
0.9997444568317116
0.999743896856481
0.99974342480579
0.9997430479090517
0.99974277288181
0.9997426064657685
0.9997425536521279
0
0
0.9996950723494756
0.9996944350010504
0.999693770824329
0.9996930819098857
0.9996923711556206
0.9996916426735349
0.9996909011781655
0.9996901518968467
0.9996894003134364
0.9996886520163325
0.9996879125734918
0.9996871874257078
0.9996864818077463
0.9996858006889627
0.9996851487305575
0.9996845302589622
0.999683949251775
0.9996834093347672
0.9996829137874338
0.9996824655554054
0.9996820672674134
0.9996817212557518
0.9996814295785048
0.9996811940428829
0.9996810162283895
0.9996808975095585
0.9996808390773493
0.9996808419591913
0.9996809070370313
0.999681035063555
0.9996812266761134
0.999681482408634
0.999681802701184
0.9996821879075166
0.9996826383003649
0.9996831540748463
0.9996837353497988
0.9996843821674386
0.9996850944911916
0.9996858722020971
0.9996867150936746
0.9996876228656392
0.9996885951163883
0.9996896313346368
0.9996907308901423
0.99969189302389
0.9996931168377057
0.9996944012836353
0.9996957451531036
0.999697147066158
0.9996986054608396
0.9997001185829718
0.9997016844764215
0.999703300974113
0.9997049656898637
0.9997066760113072
0.9997084290939755
0.9997102218567983
0.9997120509790915
0.9997139128992689
0.999715803815347
0.9997177196874523
0.9997196562423961
0.999721608980477
0.9997235731845703
0.9997255439316206
0.9997275161065632
0.9997294844187421
0.9997314434208211
0.9997333875301808
0.9997353110527677
0.9997372082093168
0.9997390731638569
0.9997409000543585
0.9997426830253704
0.9997444162624385
0.9997460940280882
0.9997477106991002
0.9997492608048096
0.9997507390660875
0.9997521404346968
0.9997534601326252
0.9997546936910571
0.999755836988552
0.9997568862880795
0.9997578382724505
0.9997586900778153
0.9997594393247692
0.9997600841467639
0.999760623215397
0.9997610557623309
0.9997613815974677
0.9997616011232019
0.9997617153444526
0.9997617258743902
0.9997616349356427
0.9997614453569965
0.999761160565471
0.9997607845738875
0.9997603219638957
0.9997597778646731
0.9997591579273292
0.9997584682953142
0.9997577155709021
0.9997569067780887
0.9997560493220079
0.9997551509452003
0.9997542196808522
0.9997532638033271
0.9997522917760936
0.9997513121974582
0.9997503337443481
0.9997493651147004
0.9997484149689697
0.9997474918723266
0.9997466042389008
0.9997457602800786
0.9997449679597777
0.9997442349599507
0.9997435686455084
0.9997429760633915
0.9997424638795058
0.999742038391789
0.9997417053494724
0.9997414700794655
0.9997413364715253
0
0
0.999696318544412
0.9996955598696228
0.9996947912608222
0.9996940138545871
0.99969322929232
0.9996924403894749
0.999691650554122
0.9996908637283242
0.9996900841398733
0.9996893161871716
0.9996885643071347
0.9996878328798392
0.9996871261529341
0.9996864481838926
0.9996858027982416
0.999685193561984
0.9996846237653869
0.9996840964169998
0.999683614245351
0.9996831797070626
0.9996827949993495
0.9996824620760095
0.999682182665229
0.9996819582886908
0.9996817902807277
0.999681679807326
0.9996816278840397
0.9996816353928547
0.9996817030973052
0.9996818316560557
0.9996820216344097
0.9996822735140705
0.9996825877007446
0.9996829645299646
0.9996834042708164
0.9996839071279762
0.9996844732418182
0.9996851026869951
0.999685795469309
0.9996865515212771
0.9996873706962471
0.9996882527614565
0.9996891973899221
0.99969020415155
0.9996912725033745
0.9996924017793013
0.9996935911792959
0.9996948397583705
0.999696146415345
0.9996975098817149
0.999698928710617
0.9997004012662318
0.999701925713619
0.9997035000093097
0.9997051218926835
0.9997067888784266
0.9997084982501157
0.9997102470552093
0.9997120321014983
0.9997138499552718
0.9997156969412601
0.9997175691445732
0.9997194624146964
0.9997213723717286
0.9997232944149007
0.999725223733523
0.9997271553203742
0.999729083987623
0.9997310043852643
0.9997329110220975
0.9997347982891868
0.9997366604857587
0.9997384918474287
0.9997402865766362
0.999742038875124
0.9997437429782632
0.9997453931910049
0.9997469839251848
0.9997485097379054
0.9997499653706546
0.9997513457888405
0.9997526462213447
0.9997538621997374
0.9997549895967159
0.9997560246634053
0.9997569640650414
0.9997578049147018
0.999758544804598
0.9997591818346209
0.9997597146376938
0.9997601424016637
0.9997604648873488
0.9997606824425436
0.9997607960116742
0.999760807141006
0.9997607179791723
0.999760531273049
0.9997602503588259
0.9997598791484189
0.9997594221111699
0.9997588842510732
0.9997582710795667
0.9997575885842109
0.9997568431933588
0.9997560417371968
0.99975519140531
0.9997542997011809
0.9997533743938044
0.999752423466869
0.9997514550657233
0.9997504774426254
0.9997494989006364
0.9997485277369191
0.9997475721859899
0.9997466403640197
0.9997457402154198
0.9997448794630341
0.9997440655620766
0.9997433056617928
0.9997426065629208
0.9997419746837067
0.9997414160116258
0.9997409360383472
0.9997405396290779
0.999740230992993
0.9997400131517331
0
0
0.9996975746484913
0.9996966951295131
0.9996958211106822
0.9996949529955188
0.9996940914121467
0.9996932381160973
0.9996923954026783