# vtk DataFile Version 2.0
2D-ADE data file 
ASCII
DATASET RECTILINEAR_GRID
DIMENSIONS 128 128 1 
X_COORDINATES 128 int
0 1 2 3 4 5 6 7 8 9 10 11 12 13 14 15 16 17 18 19 20 21 22 23 24 25 26 27 28 29 30 31 32 33 34 35 36 37 38 39 40 41 42 43 44 45 46 47 48 49 50 51 52 53 54 55 56 57 58 59 60 61 62 63 64 65 66 67 68 69 70 71 72 73 74 75 76 77 78 79 80 81 82 83 84 85 86 87 88 89 90 91 92 93 94 95 96 97 98 99 100 101 102 103 104 105 106 107 108 109 110 111 112 113 114 115 116 117 118 119 120 121 122 123 124 125 126 127 
Y_COORDINATES 128 int
0 1 2 3 4 5 6 7 8 9 10 11 12 13 14 15 16 17 18 19 20 21 22 23 24 25 26 27 28 29 30 31 32 33 34 35 36 37 38 39 40 41 42 43 44 45 46 47 48 49 50 51 52 53 54 55 56 57 58 59 60 61 62 63 64 65 66 67 68 69 70 71 72 73 74 75 76 77 78 79 80 81 82 83 84 85 86 87 88 89 90 91 92 93 94 95 96 97 98 99 100 101 102 103 104 105 106 107 108 109 110 111 112 113 114 115 116 117 118 119 120 121 122 123 124 125 126 127 
Z_COORDINATES 1 int
0
POINT_DATA 16384
SCALARS density double
LOOKUP_TABLE default
0
0
0
0
0
0
0
0
0
0
0
0
0
0
0
0
0
0
0
0
0
0
0
0
0
0
0
0
0
0
0
0
0
0
0
0
0
0
0
0
0
0
0
0
0
0
0
0
0
0
0
0
0
0
0
0
0
0
0
0
0
0
0
0
0
0
0
0
0
0
0
0
0
0
0
0
0
0
0
0
0
0
0
0
0
0
0
0
0
0
0
0
0
0
0
0
0
0
0
0
0
0
0
0
0
0
0
0
0
0
0
0
0
0
0
0
0
0
0
0
0
0
0
0
0
0
0
0
0
0.9996870216401557
0.9996870837497603
0.9996869924201411
0.9996866947996548
0.9996861881020075
0.9996855100224594
0.9996846966656778
0.9996837791245465
0.999682785200606
0.9996817400090531
0.999680665567775
0.9996795809855156
0.999678502803358
0.9996774453075652
0.9996764207851095
0.9996754397605645
0.9996745112117918
0.9996736427623527
0.9996728408517904
0.9996721108869195
0.9996714573762175
0.9996708840491053
0.9996703939616527
0.9996699895901214
0.9996696729135183
0.9996694454862085
0.9996693085014625
0.9996692628467551
0.9996693091514948
0.9996694478278328
0.9996696791051093
0.9996700030584671
0.9996704196321073
0.9996709286576381
0.9996715298679284
0.9996722229068682
0.9996730073353981
0.9996738826341718
0.9996748482031814
0.9996759033586762
0.9996770473276875
0.9996782792404544
0.9996795981210548
0.9996810028765094
0.9996824922846503
0.999684064981011
0.9996857194450064
0.999687453985654
0.9996892667270884
0.9996911555941177
0.9996931182980529
0.9996951523230502
0.9996972549131927
0.9996994230605348
0.9997016534943235
0.9997039426716025
0.9997062867694128
0.9997086816787653
0.9997111230005842
0.9997136060437758
0.9997161258256015
0.9997186770744821
0.9997212542353742
0.9997238514778239
0.999726462706798
0.9997290815763535
0.9997317015062059
0.9997343157012101
0.9997369171737586
0.9997394987690653
0.9997420531932716
0.9997445730442928
0.9997470508452764
0.9997494790805271
0.9997518502337128
0.9997541568281317
0.9997563914688073
0.9997585468861275
0.9997606159807311
0.9997625918693183
0.9997644679310359
0.9997662378540724
0.9997678956820867
0.9997694358600795
0.9997708532793186
0.999772143320921
0.9997733018977131
0.9997743254939918
0.9997752112028396
0.9997759567606591
0.9997765605786426
0.999777021770907
0.9997773401790946
0.9997775163932681
0.9997775517690061
0.99977744844064
0.9997772093306732
0.999776838155459
0.9997763394273176
0.999775718453322
0.9997749813310898
0.999774134941966
0.9997731869420919
0.9997721457519029
0.999771020544697
0.999769821234956
0.9997685584671788
0.999767243605989
0.9997658887283096
0.9997645066183173
0.9997631107657036
0.9997617153674767
0.9997603353330614
0.999758986292173
0.9997576846003892
0.9997564473344928
0.9997552922648227
0.9997542378264244
0.9997533029842992
0.9997525068248787
0.9997518674470535
0.9997514020162482
0.999751125676535
0.99975104394679
0.9997511029307965
0.9997512219370566
0
0
0.9996869601107896
0.9996870220339826
0.9996869220285989
0.9996866383749131
0.99968618932624
0.9996855916781371
0.9996848706710687
0.9996840521367621
0.9996831607306558
0.9996822185640387
0.9996812454998233
0.9996802591928193
0.9996792751984324
0.9996783071160014
0.9996773667792395
0.9996764644384041
0.9996756089305728
0.999674807837014
0.9996740676281671
0.9996733937955452
0.9996727909709356
0.9996722630337637
0.9996718132074
0.9996714441453006
0.999671158007672
0.999670956529457
0.9996708410802317
0.9996708127167003
0.9996708722282767
0.9996710201763405
0.999671256927588
0.9996715826819836
0.9996719974956811
0.9996725012993597
0.9996730939123049
0.9996737750526363
0.9996745443439826
0.9996754013189662
0.99967634541978
0.9996773759961916
0.9996784923012351
0.9996796934849078
0.9996809785861174
0.9996823465231711
0.9996837960830558
0.9996853259097691
0.9996869344919502
0.9996886201500532
0.9996903810233065
0.9996922150566826
0.9996941199881222
0.9996960933362146
0.9996981323885789
0.9997002341911313
0.9997023955384698
0.9997046129655524
0.9997068827408842
0.9997092008613735
0.9997115630490527
0.9997139647498056
0.9997164011342718
0.9997188671010488
0.9997213572823263
0.9997238660520456
0.999726387536687
0.9997289156287268
0.9997314440028425
0.9997339661348451
0.9997364753233771
0.9997389647143055
0.9997414273277881
0.9997438560878895
0.9997462438546648
0.9997485834585318
0.9997508677367875
0.9997530895720306
0.999755241932291
0.9997573179125661
0.9997593107775213
0.9997612140050012
0.9997630213300633
0.9997647267891534
0.999766324764093
0.9997678100254852
0.999769177775199
0.9997704236875243
0.9997715439486792
0.9997725352942718
0.9997733950444362
0.999774121136281
0.9997747121534255
0.9997751673523373
0.999775486685307
0.9997756708198775
0.9997757211546568
0.9997756398314359
0.9997754297436618
0.9997750945413076
0.9997746386323179
0.9997740671808012
0.9997733861022801
0.9997726020562989
0.9997717224368251
0.9997707553608531
0.9997697096557467
0.9997685948457934
0.9997674211385393
0.9997661994113409
0.999764941198572
0.9997636586796543
0.9997623646678981
0.9997610725994832
0.9997597965209666
0.9997585510718974
0.9997573514589875
0.999756213413797
0.999755153115929
0.9997541870256884
0.9997533316272103
0.9997526030566165
0.9997520165902681
0.999751584557346
0.9997513132056767
0.9997511978851383
0.9997512195506947
0.9997513373526025
0
0
0.9996870517271635
0.9996871222143809
0.999687021969496
0.999686752286008
0.9996863389110641
0.9996857941347966
0.9996851394996509
0.999684396472064
0.9996835859238737
0.9996827271678643
0.9996818380543696
0.9996809346882654
0.9996800314450762
0.9996791410566341
0.9996782747351839
0.9996774422947284
0.999676652278517
0.9996759120848986
0.9996752280872716
0.9996746057458842
0.9996740497111088
0.9996735639181973
0.9996731516734696
0.9996728157323375
0.9996725583694127
0.9996723814412398
0.9996722864419731
0.9996722745525299
0.9996723466835331
0.9996725035125513
0.9996727455159237
0.9996730729956406
0.9996734861015498
0.9996739848493095
0.9996745691343554
0.999675238742255
0.9996759933557141
0.9996768325585695
0.9996777558370255
0.9996787625784462
0.999679852067946
0.9996810234830702
0.9996822758868067
0.9996836082191937
0.9996850192877587
0.999686507757046
0.9996880721374549
0.9996897107736312
0.9996914218326324
0.9996932032920958
0.9996950529286219
0.9996969683065913
0.9996989467676219
0.999700985420865
0.99970308113435
0.99970523052755
0.9997074299653737
0.9997096755537349
0.99971196313689
0.9997142882966747
0.9997166463538086
0.9997190323713714
0.9997214411605984
0.9997238672890564
0.999726305091327
0.9997287486822113
0.9997311919725441
0.9997336286875956
0.9997360523880899
0.9997384564937795
0.999740834309544
0.9997431790539055
0.999745483889873
0.9997477419579439
0.9997499464111279
0.9997520904517581
0.9997541673699076
0.9997561705831126
0.9997580936771788
0.9997599304477248
0.9997616749421984
0.9997633215019827
0.9997648648043025
0.9997662999035277
0.9997676222715728
0.9997688278369846
0.9997699130224312
0.9997708747801973
0.9997717106254302
0.9997724186667818
0.9997729976342434
0.9997734469038796
0.9997737665193305
0.9997739572098729
0.9997740204049957
0.9997739582453887
0.9997737735903937
0.9997734700219327
0.9997730518450857
0.9997725240854236
0.9997718924833983
0.999771163485995
0.9997703442360354
0.9997694425594258
0.9997684669507773
0.9997674265577099
0.9997663311642324
0.9997651911733856
0.9997640175893148
0.9997628219985256
0.9997616165498299
0.999760413931822
0.999759227346099
0.9997580704715479
0.9997569574131061
0.9997559026259167
0.9997549208146214
0.9997540267554239
0.9997532349900029
0.9997525592751852
0.9997520122872645
0.9997516043094798
0.9997513410954074
0.9997512182610788
0.9997512401385306
0.9997513944470225
0
0
0.9996873498033635
0.9996874065320364
0.9996872915045745
0.999687020911892
0.9996866209150705
0.999686106550508
0.9996854962774357
0.999684807428942
0.9996840578274587
0.9996832644566203
0.9996824431308223
0.9996816082896431
0.9996807730295177
0.9996799491035222
0.9996791469704936
0.9996783758734545
0.9996776439339157
0.9996769582475464
0.9996763249790815
0.9996757494544875
0.9996752362485168
0.9996747892666422
0.9996744118207438
0.9996741066985971
0.9996738762269906
0.9996737223287796
0.9996736465739061
0.9996736502248021
0.9996737342762904
0.9996738994904275
0.9996741464264366
0.9996744754661661
0.9996748868352376
0.9996753806202983
0.9996759567825487
0.9996766151679327
0.9996773555141664
0.9996781774549666
0.999679080521657
0.9996800641424886
0.9996811276398538
0.9996822702257064
0.9996834909953725
0.9996847889200372
0.9996861628381013
0.9996876114456679
0.9996891332863547
0.9996907267406772
0.9996923900151995
0.9996941211316792
0.999695917916402
0.999697777989921
0.9996996987573938
0.9997016773997087
0.9997037108656014
0.999705795864925
0.9997079288632756
0.9997101060781092
0.9997123234765471
0.9997145767749778
0.999716861440636
0.9997191726952417
0.9997215055208566
0.9997238546680051
0.999726214666187
0.9997285798367961
0.9997309443085297
0.9997333020352624
0.9997356468164245
0.999737972319807
0.999740272106792
0.9997425396598668
0.9997447684123781
0.9997469517803239
0.9997490831960832
0.9997511561438349
0.9997531641965048
0.9997551010539415
0.9997569605821195
0.9997587368530201
0.9997604241849475
0.9997620171829015
0.9997635107787385
0.9997649002707161
0.9997661813621469
0.9997673501987543
0.999768403404464
0.9997693381152368
0.9997701520107096
0.9997708433432865
0.9997714109644937
0.9997718543483005
0.9997721736112879
0.9997723695294438
0.9997724435515509
0.9997723978090413
0.9997722351223699
0.9997719590038946
0.9997715736574084
0.9997710839744061
0.9997704955273344
0.9997698145599822
0.9997690479753383
0.9997682033211105
0.9997672887732602
0.9997663131177121
0.9997652857305084
0.9997642165563864
0.9997631160857664
0.999761995329705
0.9997608657920676
0.9997597394371666
0.9997586286507492
0.9997575461913166
0.9997565051273933
0.9997555187445892
0.999754600412201
0.9997537634014039
0.9997530207015612
0.9997523845751923
0.9997518659919338
0.9997514735900939
0.9997512150510716
0.9997510934990935
0.9997511249468793
0.999751314306707
0
0
0.9996878586666686
0.9996878576422071
0.9996877054895615
0.9996874188707685
0.9996870170717712
0.9996865157637151
0.9996859310675834
0.9996852781853754
0.9996845725013235
0.9996838286755589
0.9996830605659106
0.999682281046721
0.9996815019274569
0.9996807339091802
0.9996799866107396
0.9996792686150413
0.9996785875289429
0.9996779500518836
0.9996773620495611
0.9996768286282722
0.9996763542073325
0.9996759425885057
0.999675597021357
0.9996753202642021
0.9996751146401072
0.9996749820880615
0.9996749242091122
0.9996749423077572
0.9996750374285374
0.9996752103882027
0.9996754618034756
0.9996757921148082
0.9996762016062
0.9996766904214731
0.9996772585770951
0.9996779059719394
0.999678632394079
0.9996794375249941
0.9996803209413002
0.9996812821143486
0.9996823204078232
0.9996834350736628
0.9996846252464384
0.9996858899364927
0.9996872280219821
0.9996886382401079
0.9996901191776817
0.999691669261289
0.9996932867472138
0.999694969711356
0.9996967160393178
0.999698523416869
0.9997003893209713
0.9997023110115552
0.9997042855242237
0.9997063096640656
0.9997083800007424
0.9997104928650106
0.9997126443468421
0.9997148302952709
0.9997170463201199
0.9997192877957076
0.9997215498666707
0.9997238274559626
0.9997261152751453
0.9997284078369845
0.9997306994704469
0.9997329843380557
0.9997352564556586
0.9997375097145308
0.999739737905806
0.9997419347471111
0.9997440939113508
0.9997462090574553
0.9997482738629959
0.9997502820584143
0.9997522274627317
0.9997541040204253
0.9997559058392935
0.9997576272289561
0.9997592627397693
0.9997608072017701
0.9997622557634008
0.9997636039296112
0.9997648475990811
0.9997659831001464
0.999767007225193
0.999767917263103
0.999768711029555
0.9997693868947986
0.9997699438087356
0.9997703813230023
0.9997706996099436
0.999770899478239
0.9997709823851569
0.9997709504452853
0.9997708064357979
0.9997705537981979
0.9997701966366895
0.9997697397132085
0.9997691884393383
0.9997685488652119
0.9997678276656833
0.9997670321238844
0.9997661701124588
0.9997652500725269
0.9997642809905669
0.9997632723730738
0.9997622342188578
0.9997611769883705
0.999760111569377
0.9997590492375055
0.9997580016093505
0.9997569805839909
0.9997559982708499
0.9997550668989803
0.9997541986994034
0.9997534057224035
0.999752699647211
0.9997520915310345
0.9997515916588493
0.9997512087681194
0.9997509519533546
0.999750829037978
0.9997508555107238
0.999751042923515
0
0
0.999688542413695
0.9996884600551963
0.9996882526938179
0.9996879320814844
0.9996875126287182
0.9996870085437897
0.9996864336265693
0.9996858012231009
0.9996851244734063
0.9996844160380938
0.9996836880378237
0.9996829518344281
0.999682217941813
0.9996814959882386
0.999680794712108
0.999680121976139
0.999679484803232
0.9996788894250725
0.999678341336976
0.9996778453557553
0.9996774056783369
0.9996770259396218
0.9996767092680047
0.9996764583380158
0.9996762754193109
0.9996761624219677
0.9996761209376609
0.9996761522769234
0.9996762575022687
0.999676437457502
0.9996766927931081
0.9996770239881041
0.9996774313683002
0.9996779151213825
0.9996784753088053
0.9996791118748912
0.9996798246531702
0.9996806133703378
0.9996814776478807
0.9996824170017389
0.9996834308400636
0.999684518459423
0.9996856790395326
0.9996869116368341
0.9996882151770138
0.9996895884467701
0.999691030084928
0.9996925385731847
0.9996941122266063
0.9996957491841315
0.9996974473992095
0.9996992046308169
0.9997010184349833
0.9997028861570452
0.9997048049247735
0.9997067716425622
0.9997087829868301
0.999710835402803
0.9997129251028162
0.99971504806628
0.9997172000414516
0.9997193765491085
0.9997215728882587
0.9997237841439508
0.9997260051972953
0.9997282307377147
0.9997304552775116
0.9997326731687228
0.9997348786223104
0.9997370657296152
0.9997392284860737
0.9997413608170673
0.9997434566058717
0.9997455097235046
0.9997475140603963
0.9997494635596268
0.9997513522516067
0.9997531742898865
0.9997549239879339
0.999756595856516
0.9997581846414874
0.9997596853615874
0.9997610933460241
0.9997624042714207
0.9997636141978964
0.9997647196038502
0.9997657174192256
0.9997666050568417
0.9997673804415843
0.9997680420370902
0.999768588869751
0.9997690205497208
0.9997693372888315
0.9997695399151482
0.9997696298841523
0.9997696092863755
0.9997694808515415
0.9997692479491247
0.9997689145854775
0.9997684853975061
0.9997679656431151
0.9997673611884659
0.9997666784923032
0.9997659245874142
0.9997651070594578
0.9997642340231607
0.9997633140960088
0.9997623563692357
0.9997613703759838
0.9997603660559996
0.999759353716112
0.9997583439852108
0.9997573477626224
0.9997563761569563
0.9997554404113446
0.9997545518106646
0.9997537215802388
0.9997529607592698
0.999752280051158
0.9997516896109714
0.9997511991412169
0.999750817695319
0.9997505548794079
0.9997504205151114
0.9997504274601423
0.9997505863632977
0
0
0.9996893668189686
0.9996891899704083
0.9996889127146324
0.9996885430234403
0.9996880923387671
0.9996875719807061
0.9996869934159761
0.9996863681055708
0.9996857072790925
0.9996850218579297
0.9996843223325198
0.9996836186220206
0.9996829200001526
0.9996822350365652
0.9996815715694817
0.9996809367059779
0.9996803368411825
0.9996797776888217
0.9996792643198832
0.9996788012068105
0.9996783922700841
0.9996780409255472
0.9996777501307843
0.9996775224299834
0.9996773599962256
0.9996772646710848
0.9996772380009152
0.9996772812699812
0.999677395530058
0.9996775816267931
0.9996778402226031
0.9996781718164691
0.9996785767604937
0.9996790552736075
0.9996796074523562
0.9996802332791551
0.9996809326279804
0.9996817052678837
0.9996825508643227
0.9996834689786837
0.9996844590660064
0.9996855204712786
0.9996866524243189
0.9996878540336004
0.999689124279059
0.9996904620041959
0.9996918659075593
0.9996933345338801
0.9996948662649595
0.9996964593105724
0.9996981116994892
0.9996998212708597
0.999701585666078
0.9997034023213491
0.9997052684610791
0.9997071810922937
0.9997091370002104
0.9997111327451427
0.9997131646608648
0.9997152288545842
0.9997173212086496
0.9997194373841077
0.9997215728262239
0.9997237227720487
0.999725882260122
0.9997280461423534
0.9997302090981548
0.9997323656508073
0.9997345101861066
0.9997366369732229
0.9997387401877733
0.9997408139369923
0.9997428522869514
0.9997448492916549
0.9997467990239205
0.9997486956078079
0.9997505332524624
0.9997523062870792
0.9997540091968167
0.999755636659308
0.9997571835815733
0.9997586451369365
0.9997600168017279
0.9997612943913526
0.9997624740954908
0.999763552512007
0.9997645266793381
0.9997653941069463
0.9997661528036387
0.9997668013033584
0.9997673386883009
0.99976776460901
0.9997680793013591
0.9997682836001444
0.999768378949268
0.9997683674083118
0.9997682516555645
0.9997680349873773
0.9997677213139949
0.9997673151518082
0.9997668216122461
0.9997662463872942
0.9997655957319053
0.9997648764432928
0.9997640958373556
0.9997632617221732
0.9997623823687055
0.999761466478467
0.9997605231480828
0.9997595618302129
0.9997585922903787
0.9997576245584703
0.9997566688738513
0.9997557356230344
0.9997548352695824
0.9997539782711277
0.9997531749852614
0.9997524355690985
0.9997517699041428
0.9997511874870164
0.9997506975158011
0.9997503089515919
0.9997500309855464
0.999749873079928
0.9997498466175825
0.9997499598223599
0
0
0.9996903026488381
0.9996900229562068
0.9996896651506453
0.9996892352117964
0.9996887417228547
0.9996881933772869
0.9996875995905516
0.9996869699007692
0.9996863137834494
0.9996856405452714
0.9996849591813031
0.9996842782768306
0.9996836059220945
0.999682949649007
0.9996823163990062
0.9996817125118957
0.9996811437299176
0.999680615214927
0.9996801315749202
0.9996796968967601
0.9996793147822087
0.9996789883859742
0.9996787204539399
0.999678513360901
0.9996783691466076
0.9996782895499694
0.9996782760406477
0.9996783298481631
0.99967845198801
0.9996786432850584
0.9996789043939032
0.9996792358165254
0.9996796379170311
0.9996801109338689
0.9996806549893635
0.9996812700969826
0.9996819561662186
0.9996827130055006
0.9996835403230578
0.9996844377261334
0.9996854047185014
0.9996864406966709
0.9996875449447505
0.9996887166283391
0.9996899547874376
0.9996912583287247
0.999692626017218
0.9996940564676353
0.9996955481354949
0.9996970993082581
0.9996987080965568
0.9997003724257951
0.9997020900281879
0.9997038584354885
0.9997056749724959
0.9997075367515609
0.9997094406681938
0.9997113833979703
0.9997133613948365
0.9997153708909851
0.9997174078984054
0.9997194682122413
0.9997215474160523
0.9997236408890817
0.9997257438156044
0.9997278511964184
0.9997299578625317
0.9997320584910588
0.9997341476233483
0.9997362196853019
0.9997382690098746
0.9997402898616512
0.9997422764634522
0.9997442230248024
0.9997461237721721
0.9997479729807602
0.9997497650076885
0.9997514943263157
0.9997531555614995
0.9997547435254662
0.9997562532540767
0.9997576800431076
0.9997590194843204
0.9997602675008983
0.9997614203820168
0.9997624748161181
0.9997634279226643
0.9997642772819383
0.9997650209626979
0.9997656575472813
0.9997661861540069
0.9997666064565107
0.9997669186999347
0.9997671237136566
0.9997672229205586
0.9997672183425955
0.9997671126027361
0.9997669089231197
0.9997666111195803
0.9997662235924483
0.9997657513138445
0.9997651998114341
0.9997645751488891
0.9997638839030302
0.9997631331379029
0.9997623303756958
0.9997614835646824
0.9997606010439757
0.9997596915050818
0.9997587639497977
0.9997578276442416
0.9997568920684108
0.9997559668606429
0.9997550617556888
0.9997541865172709
0.9997533508660483
0.9997525644042341
0.9997518365341604
0.9997511764060164
0.9997505928834813
0.999750094587948
0.9997496899906434
0.9997493876302023
0.9997491957606555
0.9997491241206321
0.9997491794763185
0
0
0.9996913237483079
0.9996909355650885
0.9996904900119754
0.9996899914804088
0.9996894458922616
0.9996888599814417
0.9996882412410372
0.9996875974036691
0.9996869363403317
0.9996862658679168
0.9996855936130409
0.9996849269151503
0.999684272740751
0.9996836376247533
0.9996830276321516
0.9996824483372662
0.9996819048187889
0.9996814016677171
0.9996809430039127
0.9996805324993094
0.9996801734052502
0.9996798685826553
0.9996796205330754
0.9996794314300419
0.9996793031494249
0.9996792372986489
0.9996792352438755
0.9996792981352749
0.9996794269297656
0.9996796224115141
0.9996798852097436
0.9996802158142357
0.9996806145881928
0.9996810817788845
0.9996816175258358
0.9996822218669869
0.9996828947426435
0.9996836359976529
0.9996844453816551
0.9996853225478456
0.9996862670501305
0.9996872783390858
0.9996883557566452
0.9996894985298977
0.9996907057639465
0.9996919764341932
0.9996933093780219
0.9996947032862212
0.9996961566941469
0.9996976679729357
0.999699235320798
0.999700856754676
0.9997025301023129
0.9997042529950002
0.9997060228610616
0.9997078369203178
0.9997096921796044
0.9997115854295606
0.9997135132427699
0.9997154719734376
0.9997174577586981
0.999719466521694
0.9997214939765169
0.9997235356351238
0.9997255868162956
0.9997276426567153
0.9997296981242069
0.9997317480331709
0.9997337870622267
0.9997358097740364
0.9997378106372962
0.9997397840508044
0.999741724369554
0.999743625932694
0.9997454830932668
0.9997472902495003
0.9997490418775212
0.9997507325652009
0.9997523570469649
0.9997539102392231
0.9997553872762108
0.9997567835458556
0.9997580947254437
0.9997593168166514
0.9997604461797197
0.9997614795663221
0.9997624141509021
0.9997632475600335
0.9997639778996177
0.9997646037794822
0.9997651243352406
0.9997655392470276
0.9997658487550197
0.9997660536714249
0.999766155388919
0.9997661558852824
0.999766057724304
0.9997658640527726
0.9997655785937075
0.9997652056357151
0.9997647500186944
0.9997642171158281
0.9997636128121238
0.9997629434794609
0.9997622159484124
0.9997614374767638
0.9997606157149433
0.9997597586682024
0.9997588746556653
0.9997579722659382
0.9997570603092119
0.9997561477654575
0.9997552437289398
0.9997543573487114
0.999753497765195
0.9997526740440185
0.9997518951128768
0.9997511697013733
0.999750506296822
0.9997499131259039
0.9997493981666625
0.999748969147594
0.9997486337700859
0.9997483991970283
0.9997482731791664
0.9997482613363639
0
0
0.9996924062972058
0.9996919065974559
0.9996913685969028
0.9996907952250197
0.9996901903902631
0.9996895592064261
0.9996889074198081
0.9996882411983188
0.9996875669482976
0.9996868911165566
0.9996862200688428
0.999685559985194
0.999684916777588
0.999684296031207
0.999683702962095
0.999683142392281
0.9996826187389
0.9996821360147081
0.9996816978370401
0.999681307443744
0.9996809677134504
0.9996806811890825
0.9996804501027405
0.9996802764014796
0.9996801617725972
0.999680107668326
0.9996801153289455
0.9996801858044694
0.9996803199741824
0.9996805185643471
0.9996807821635318
0.9996811112359714
0.999681506132537
0.9996819670997769
0.999682494286687
0.9996830877496935
0.9996837474555712
0.999684473282779
0.9996852650209843
0.9996861223692508
0.9996870449326978
0.9996880322180889
0.9996890836281945
0.9996901984553632
0.9996913758741783
0.9996926149336098
0.9996939145485711
0.9996952734912622
0.9996966903822405
0.9996981636815742
0.9996996916800446
0.9997012724907323
0.9997029040409743
0.9997045840650007
0.9997063100972667
0.9997080794667548
0.9997098892922833
0.9997117364790769
0.9997136177166305
0.9997155294781077
0.9997174680213134
0.9997194293914291
0.9997214094255696
0.999723403759302
0.9997254078351804
0.9997274169133894
0.9997294260845326
0.9997314302846175
0.9997334243122336
0.9997354028479293
0.9997373604757518
0.9997392917068847
0.9997411910053161
0.9997430528154057
0.9997448715912404
0.9997466418275807
0.9997483580922396
0.9997500150596387
0.9997516075453383
0.9997531305412221
0.9997545792511128
0.9997559491264318
0.9997572359016702
0.9997584356292382
0.9997595447134501
0.9997605599432038
0.999761478523105
0.9997622981025975
0.9997630168028849
0.999763633241214
0.999764146552356
0.9997645564068931
0.9997648630262123
0.9997650671938652
0.9997651702632834
0.9997651741615614
0.9997650813893951
0.9997648950169596
0.9997646186758908
0.9997642565472354
0.9997638133456026
0.9997632942994368
0.9997627051276973
0.9997620520128967
0.9997613415707949
0.9997605808166906
0.9997597771286004
0.9997589382071974
0.9997580720327435
0.9997571868188548
0.9997562909633126
0.9997553929956778
0.9997545015220222
0.9997536251671496
0.9997527725153883
0.9997519520503388
0.9997511720973352
0.9997504407725565
0.9997497659418323
0.9997491551920898
0.9997486158334422
0.9997481548270355
0.9997477789078242
0.9997474942704329
0.9997473069291477
0.9997472213391881
0
0
0.9996935291316092
0.9996929167220382
0.9996922833186855
0.9996916306750423
0.9996909612275984
0.9996902786588506
0.9996895872458083
0.9996888917968424
0.9996881973921719
0.9996875092392694
0.9996868325474749
0.9996861724234385
0.9996855337926254
0.9996849213402924
0.9996843394685178
0.9996837922689945
0.9996832835077893
0.9996828166208729
0.9996823947177229
0.9996820205916198
0.9996816967342154
0.9996814253536128
0.9996812083940916
0.9996810475570996
0.9996809443220935
0.9996808999672033
0.9996809155886552
0.9996809921191665
0.9996811303444934
0.9996813309184934
0.9996815943760728
0.999681921144463
0.9996823115523221
0.9996827658371579
0.999683284150658
0.9996838665624365
0.99968451306186
0.9996852235584577
0.9996859978806304
0.9996868357731594
0.9996877368932657
0.9996887008057058
0.9996897269766979
0.9996908147671354
0.9996919634249173
0.9996931720768368
0.9996944397198814
0.9996957652123629
0.999697147264767
0.9996985844307106
0.9997000750979279
0.9997016174796524
0.9997032096063375
0.9997048493180625
0.999706534257588
0.9997082618643892
0.9997100293696423
0.9997118337924731
0.9997136719374584
0.9997155403936505
0.9997174355351418
0.9997193535233888
0.9997212903113263
0.9997232416494481
0.9997252030938788
0.9997271700165679
0.9997291376176187
0.9997311009398296
0.9997330548854358
0.9997349942350715
0.9997369136689139
0.9997388077899575
0.9997406711493431
0.9997424982736276
0.999744283693877
0.9997460219763861
0.9997477077548753
0.9997493357639016
0.9997509008732803
0.9997523981232007
0.9997538227597966
0.999755170270795
0.9997564364209842
0.9997576172870832
0.9997587092917402
0.9997597092362183
0.9997606143315111
0.9997614222274301
0.99976213103944
0.9997627393728
0.9997632463438333
0.9997636515979199
0.9997639553241002
0.9997641582659393
0.9997642617286213
0.9997642675819881
0.9997641782595907
0.9997639967535321
0.9997637266052654
0.9997633718922018
0.9997629372103685
0.9997624276530391
0.9997618487856352
0.9997612066168621
0.9997605075664154
0.999759758429231
0.9997589663366199
0.9997581387142511
0.9997572832373165
0.9997564077828003
0.9997555203792508
0.9997546291540806
0.9997537422788988
0.9997528679130965
0.9997520141470408
0.9997511889459018
0.9997504000957389
0.9997496551543353
0.9997489614092295
0.9997483258340114
0.9997477550709719
0.9997472553626392
0.999746832529578
0.999746491824637
0.9997462379302685
0.9997460742609615
0
0
0.999694673500398
0.9996939483782527
0.9996932179367612
0.9996924830574775
0.999691745028498
0.9996910063308787
0.9996902700275526
0.9996895397268726
0.9996888193352315
0.9996881129473859
0.9996874247158171
0.9996867587574395
0.9996861190783485
0.9996855095163374
0.9996849336986341
0.9996843950135225
0.999683896592796
0.9996834413042159
0.9996830317512334
0.9996826702790508
0.9996823589848174
0.9996820997313834
0.9996818941627618
0.9996817437210858
0.9996816496636197
0.9996816130798967
0.9996816349078527
0.999681715949237
0.9996818568834094
0.9996820582799408
0.9996823206093071
0.9996826442521695
0.9996830295066561
0.9996834765941933
0.999683985663385
0.9996845567925063
0.999685189990187
0.9996858851948471
0.9996866422725139
0.999687461013578
0.9996883411281562
0.9996892822406072
0.9996902838829091
0.9996913454874153
0.9996924663787432
0.9996936457652874
0.9996948827301417
0.9996961762219039
0.9996975250451772
0.99969892785122
0.9997003831285908
0.9997018891942103
0.9997034441847311
0.9997050460485962
0.9997066925387139
0.9997083812061106
0.9997101093944991
0.9997118742361102
0.9997136726487394
0.9997155013343223
0.999717356779013
0.9997192352550361
0.9997211328243042
0.9997230453440145
0.9997249684742259
0.9997268976875852
0.999728828281185
0.9997307553906688
0.9997326740065503
0.9997345789928006
0.9997364651076345
0.9997383270264858
0.9997401593670716
0.9997419567164569
0.9997437136599779
0.999745424811863
0.9997470848473684
0.9997486885361886
0.9997502307769203
0.9997517066322695
0.9997531113647503
0.9997544404724966
0.9997556897249172
0.9997568551977645
0.9997579333073402
0.99975892084338
0.9997598150003437
0.9997606134066488
0.9997613141515973
0.9997619158095503
0.9997624174611515
0.9997628187111791
0.9997631197029082
0.9997633211286074
0.9997634242361433
0.9997634308313805
0.9997633432764491
0.9997631644836482
0.9997628979051435
0.9997625475183228
0.9997621178070445
0.9997616137387162
0.9997610407375229
0.9997604046537801
0.9997597117297986
0.9997589685622575
0.9997581820615056
0.9997573594078022
0.999756508004945
0.9997556354313193
0.9997547493888487
0.9997538576499737
0.9997529680033764
0.999752088198728
0.9997512258914236
0.9997503885882207
0.9997495835948956
0.9997488179659809
0.999748098459681
0.9997474314883941
0.9997468230725229
0.9997462787875627
0.9997458036755914
0.9997454021440096
0.9997450778355501
0.9997448333569884
0
0
0.9996958226903784
0.9996949856325542
0.999694157508463
0.9996933385372014
0.9996925290903266
0.9996917306758355