# vtk DataFile Version 2.0
2D-ADE data file 
ASCII
DATASET RECTILINEAR_GRID
DIMENSIONS 128 128 1 
X_COORDINATES 128 int
0 1 2 3 4 5 6 7 8 9 10 11 12 13 14 15 16 17 18 19 20 21 22 23 24 25 26 27 28 29 30 31 32 33 34 35 36 37 38 39 40 41 42 43 44 45 46 47 48 49 50 51 52 53 54 55 56 57 58 59 60 61 62 63 64 65 66 67 68 69 70 71 72 73 74 75 76 77 78 79 80 81 82 83 84 85 86 87 88 89 90 91 92 93 94 95 96 97 98 99 100 101 102 103 104 105 106 107 108 109 110 111 112 113 114 115 116 117 118 119 120 121 122 123 124 125 126 127 
Y_COORDINATES 128 int
0 1 2 3 4 5 6 7 8 9 10 11 12 13 14 15 16 17 18 19 20 21 22 23 24 25 26 27 28 29 30 31 32 33 34 35 36 37 38 39 40 41 42 43 44 45 46 47 48 49 50 51 52 53 54 55 56 57 58 59 60 61 62 63 64 65 66 67 68 69 70 71 72 73 74 75 76 77 78 79 80 81 82 83 84 85 86 87 88 89 90 91 92 93 94 95 96 97 98 99 100 101 102 103 104 105 106 107 108 109 110 111 112 113 114 115 116 117 118 119 120 121 122 123 124 125 126 127 
Z_COORDINATES 1 int
0
POINT_DATA 16384
SCALARS density double
LOOKUP_TABLE default
0
0
0
0
0
0
0
0
0
0
0
0
0
0
0
0
0
0
0
0
0
0
0
0
0
0
0
0
0
0
0
0
0
0
0
0
0
0
0
0
0
0
0
0
0
0
0
0
0
0
0
0
0
0
0
0
0
0
0
0
0
0
0
0
0
0
0
0
0
0
0
0
0
0
0
0
0
0
0
0
0
0
0
0
0
0
0
0
0
0
0
0
0
0
0
0
0
0
0
0
0
0
0
0
0
0
0
0
0
0
0
0
0
0
0
0
0
0
0
0
0
0
0
0
0
0
0
0
0
0.9996877431192488
0.9996877861410208
0.9996876907396032
0.999687417466748
0.9996869693033728
0.9996863814609698
0.9996856867774364
0.999684912956534
0.9996840844345563
0.9996832230545498
0.9996823478104754
0.9996814750638171
0.9996806188852384
0.9996797913548767
0.999679002802367
0.9996782620236507
0.9996775764751494
0.9996769524444049
0.9996763951991601
0.9996759091183568
0.9996754978074576
0.9996751642000246
0.9996749106471956
0.9996747389964988
0.9996746506611971
0.9996746466811904
0.9996747277763314
0.9996748943929162
0.9996751467439974
0.9996754848440945
0.9996759085388034
0.9996764175297681
0.9996770113954055
0.9996776896077771
0.9996784515459212
0.9996792965059842
0.9996802237084184
0.9996812323025391
0.9996823213686843
0.9996834899182284
0.9996847368916727
0.999686061155048
0.9996874614948216
0.9996889366115392
0.9996904851123755
0.9996921055028054
0.9996937961775749
0.9996955554111577
0.9996973813478753
0.9996992719918618
0.999701225197042
0.999703238657291
0.9997053098969491
0.9997074362618451
0.9997096149109993
0.9997118428091475
0.9997141167202515
0.9997164332021345
0.9997187886023807
0.9997211790556408
0.999723600482464
0.9997260485897745
0.9997285188731092
0.9997310066207037
0.9997335069195223
0.9997360146632994
0.9997385245626536
0.9997410311573146
0.9997435288304907
0.9997460118253794
0.9997484742638183
0.9997509101670269
0.9997533134784043
0.9997556780882914
0.999757997860604
0.9997602666612205
0.9997624783879744
0.9997646270020892
0.999766706560874
0.9997687112514656
0.9997706354254053
0.9997724736338006
0.9997742206628283
0.9997758715693056
0.9997774217160712
0.9997788668068861
0.9997802029205926
0.9997814265442507
0.9997825346049969
0.9997835245003664
0.9997843941268606
0.9997851419065376
0.9997857668114586
0.9997862683858325
0.9997866467657656
0.9997869026965348
0.9997870375473885
0.9997870533239025
0.999786952677999
0.9997867389157844
0.9997864160034526
0.9997859885715469
0.9997854619179813
0.9997848420102833
0.9997841354876232
0.999783349663277
0.9997824925282697
0.9997815727570242
0.9997805997159533
0.9997795834759773
0.9997785348299523
0.9997774653159254
0.9997763872470816
0.9997753137494211
0.9997742588049435
0.99977323729546
0.9997722650399895
0.9997713588515166
0.9997705365420394
0.9997698167219119
0.9997692180275425
0.9997687593566674
0.9997684597457123
0.9997683329939653
0.9997683469307423
0.9997684391794713
0
0
0.9996876981438272
0.9996877435760637
0.9996876463612153
0.9996873913781613
0.9996869986648081
0.9996864849443536
0.9996858736083731
0.9996851879242205
0.999684449739308
0.999683678416338
0.9996828911907272
0.9996821032651072
0.9996813279443374
0.9996805767878809
0.9996798597948938
0.9996791855755174
0.9996785615070307
0.9996779938754362
0.9996774880039229
0.9996770483682901
0.9996766787001823
0.9996763820792887
0.9996761610155008
0.9996760175220271
0.9996759531802393
0.9996759691970736
0.9996760664555979
0.9996762455594095
0.9996765068713386
0.9996768505470036
0.9996772765635931
0.9996777847443253
0.9996783747789024
0.999679046240332
0.9996797985983856
0.9996806312300242
0.9996815434270148
0.9996825344010367
0.9996836032864769
0.9996847491411793
0.9996859709453352
0.9996872675987553
0.9996886379166917
0.9996900806244458
0.9996915943509079
0.9996931776212556
0.9996948288489559
0.9996965463272754
0.9996983282204486
0.9997001725546883
0.999702077209199
0.9997040399073552
0.9997060582082042
0.99970812949845
0.9997102509850748
0.9997124196887396
0.9997146324381138
0.9997168858652706
0.9997191764022857
0.9997215002791592
0.9997238535231929
0.9997262319599184
0.9997286312156992
0.999731046722076
0.9997334737219591
0.999735907277714
0.999738342281212
0.9997407734658683
0.9997431954207074
0.9997456026064386
0.999747989373551
0.999750349982371
0.9997526786250509
0.9997549694493937
0.9997572165844363
0.9997594141676582
0.9997615563736968
0.9997636374443859
0.9997656517199746
0.9997675936712916
0.9997694579326808
0.9997712393354466
0.999772932941603
0.9997745340776405
0.9997760383680968
0.9997774417686263
0.9997787405983526
0.9997799315712109
0.999781011826067
0.9997819789553455
0.9997828310319856
0.9997835666344926
0.9997841848699525
0.9997846853948361
0.999785068433529
0.9997853347944857
0.9997854858840297
0.9997855237177966
0.9997854509299371
0.9997852707801859
0.9997849871590341
0.9997846045912285
0.9997841282379537
0.9997835638980586
0.9997829180087955
0.9997821976465613
0.9997814105282115
0.9997805650135007
0.9997796701092736
0.9997787354758881
0.9997777714363711
0.9997767889883937
0.9997757998186264
0.9997748163176152
0.9997738515938578
0.9997729194826828
0.999772034538794
0.9997712119641569
0.9997704674773805
0.9997698171028122
0.9997692769573215
0.9997688616478517
0.99976858196309
0.9997684398042757
0.9997684290833155
0.9997685195196717
0
0
0.999687795253271
0.9996878455933995
0.9996877493738745
0.9996875094770105
0.9996871508475893
0.9996866858985463
0.9996861345270595
0.9996855161152743
0.9996848492370385
0.9996841508757628
0.9996834365803624
0.9996827202718023
0.9996820142926185
0.9996813295063804
0.9996806754238976
0.9996800603213984
0.9996794913597862
0.9996789746994206
0.9996785156075345
0.9996781185569162
0.9996777873160259
0.999677525030916
0.9996773342992225
0.9996772172367815
0.9996771755372633
0.9996772105254329
0.9996773232043968
0.9996775142973897
0.9996777842844082
0.9996781334341843
0.9996785618317565
0.9996790694020679
0.999679655929815
0.9996803210759265
0.9996810643908591
0.9996818853250532
0.9996827832367187
0.9996837573972516
0.9996848069944385
0.9996859311337267
0.999687128837703
0.9996883990440371
0.9996897406020248
0.9996911522679705
0.9996926326995373
0.99969418044929
0.9996957939575579
0.9996974715448264
0.999699211403784
0.9997010115912238
0.9997028700199235
0.999704784450689
0.9997067524846931
0.9997087715562719
0.999710838926318
0.9997129516764182
0.9997151067038652
0.99971730071769
0.9997195302358294
0.9997217915835549
0.999724080893284
0.9997263941058685
0.9997287269734675
0.9997310750640824
0.9997334337678454
0.9997357983051017
0.9997381637363648
0.9997405249741492
0.9997428767967307
0.9997452138638072
0.9997475307340761
0.9997498218846619
0.9997520817323763
0.9997543046567005
0.9997564850244396
0.9997586172158883
0.9997606956524268
0.9997627148253436
0.9997646693257677
0.999766553875467
0.9997683633583677
0.9997700928525202
0.9997717376623356
0.9997732933508068
0.999774755771516
0.9997761211001325
0.9997773858652053
0.9997785469779535
0.999779601760874
0.9997805479748855
0.9997813838448649
0.9997821080833211
0.9997827199121114
0.9997832190820041
0.999783605890046
0.9997838811946134
0.9997840464281789
0.9997841036077589
0.9997840553431628
0.999783904843097
0.9997836559193567
0.9997833129892436
0.9997828810765405
0.999782365811283
0.9997817734287353
0.9997811107678722
0.9997803852698147
0.9997796049765146
0.9997787785300591
0.9997779151726652
0.9997770247473652
0.9997761176989145
0.9997752050741694
0.999774298518835
0.9997734102660387
0.9997725531098688
0.9997717403669404
0.9997709857831714
0.9997703033485092
0.9997697068918986
0.9997692099403666
0.9997688246692944
0.9997685605315703
0.9997684183839352
0.9997684078716698
0.9997685218312542
0
0
0.9996880762187865
0.9996881086862933
0.9996879973913491
0.9996877573836334
0.9996874119400707
0.9996869751472243
0.9996864638810665
0.9996858937842324
0.9996852806966845
0.999684639560097
0.9996839841727161
0.9996833270416265
0.9996826794370244
0.9996820514133151
0.9996814518670764
0.999680888616184
0.999680368489562
0.9996798974155869
0.9996794805078192
0.9996791221468955
0.9996788260573464
0.999678595378786
0.9996784327311828
0.9996783402744468
0.9996783197623523
0.9996783725911788
0.9996784998431941
0.9996787023254138
0.9996789806037802
0.9996793350332024
0.9996797657835785
0.9996802728622289
0.9996808561328502
0.9996815153313737
0.999682250078847
0.999683059891677
0.9996839441893488
0.9996849022999353
0.9996859334634969
0.9996870368336693
0.9996882114775336
0.9996894563740408
0.9996907704110904
0.9996921523815107
0.9996936009780395
0.9996951147875454
0.9996966922845807
0.9996983318244922
0.9997000316361884
0.999701789814769
0.9997036043141245
0.9997054729396924
0.9997073933414811
0.9997093630075415
0.9997113792579886
0.9997134392397414
0.9997155399220934
0.9997176780932501
0.9997198503579526
0.9997220531363055
0.9997242826639176
0.9997265349934564
0.9997288059977166
0.9997310913742685
0.9997333866517853
0.9997356871980807
0.9997379882299325
0.9997402848247013
0.9997425719337822
0.9997448443978754
0.9997470969640789
0.9997493243047462
0.9997515210380886
0.9997536817504176
0.9997558010199729
0.9997578734421891
0.9997598936563173
0.9997618563732038
0.9997637564041179
0.9997655886903911
0.9997673483337253
0.9997690306269101
0.9997706310847772
0.9997721454751127
0.9997735698493445
0.9997749005727081
0.999776134353713
0.999777268272612
0.9997782998087107
0.9997792268662306
0.9997800477986006
0.9997807614309133
0.9997813670804696
0.9997818645751926
0.9997822542698944
0.9997825370602441
0.9997827143944784
0.9997827882827851
0.9997827613044838
0.9997826366130064
0.999782417938887
0.9997821095908447
0.9997817164552391
0.999781243994047
0.9997806982416885
0.9997800858008679
0.9997794138377455
0.9997786900765177
0.9997779227935759
0.9997771208110743
0.9997762934895916
0.9997754507187315
0.9997746029043186
0.9997737609501578
0.9997729362316383
0.9997721405477598
0.9997713860427507
0.9997706850883423
0.9997700501766165
0.9997694935931289
0.9997690269912215
0.9997686604181858
0.9997684035904985
0.9997682625246843
0.9997682538624232
0.9997683847364627
0
0
0.9996885364908177
0.9996885134311246
0.9996883673642404
0.9996881128066202
0.999687766164481
0.9996873415902218
0.9996868535212823
0.9996863155217128
0.9996857411916762
0.9996851434039457
0.9996845342404195
0.9996839248541267
0.9996833254168576
0.9996827450959264
0.9996821920879283
0.9996816736676906
0.9996811962467493
0.9996807654374249
0.9996803861197212
0.9996800625076256
0.999679798212833
0.9996795963052262
0.9996794593693727
0.9996793895569281
0.999679388634608
0.9996794580279453
0.9996795988607302
0.9996798119904619
0.9996800980398042
0.9996804574244135
0.9996808903771685
0.9996813969691745
0.9996819771275904
0.9996826306506393
0.9996833572198485
0.9996841564098715
0.9996850276959324
0.9996859704592318
0.999686983990348
0.9996880674909588
0.9996892200739176
0.9996904407619899
0.9996917284852879
0.9996930820776849
0.9996945002722635
0.9996959816960512
0.9996975248641088
0.9996991281732046
0.9997007898951491
0.999702508170008
0.9997042809992721
0.999706106239184
0.9997079815943141
0.9997099046115622
0.9997118726746855
0.9997138829995126
0.9997159326299444
0.9997180184348907
0.9997201371062338
0.9997222851579552
0.999724458926513
0.999726654572578
0.9997288680842161
0.9997310952815947
0.9997333318232898
0.9997355732142419
0.9997378148154232
0.9997400518552253
0.9997422794426142
0.9997444925820258
0.9997466861900132
0.9997488551135894
0.999750994150245
0.9997530980695379
0.9997551616362066
0.9997571796346629
0.9997591468947782
0.9997610583187808
0.9997629089091516
0.999764693797285
0.999766408272794
0.9997680478131777
0.9997696081137147
0.9997710851172843
0.9997724750439568
0.999773774420048
0.9997749801064792
0.999776089326131
0.9997770996900567
0.9997780092222474
0.9997788163828458
0.9997795200895282
0.9997801197369969
0.9997806152143395
0.9997810069202547
0.9997812957759615
0.9997814832358474
0.9997815712957421
0.9997815624989452
0.9997814599399575
0.999781267266119
0.9997809886771599
0.9997806289229239
0.9997801932993152
0.9997796876427417
0.9997791183230927
0.9997784922354819
0.9997778167906733
0.9997770999042046
0.9997763499837913
0.9997755759146352
0.9997747870415777
0.9997739931464013
0.9997732044168203
0.9997724314055246
0.9997716849752151
0.9997709762231414
0.9997703163497361
0.9997697165159206
0.9997691876388252
0.9997687402758347
0.9997683839251776
0.999768128464608
0.9997679828011892
0.9997679612430654
0.9997680750465595
0
0
0.99968914162599
0.999689044051555
0.9996888477181658
0.9996885624371087
0.99968820028779
0.9996877736868953
0.9996872946811471
0.9996867750254254
0.9996862262512419
0.9996856594196228
0.9996850850649974
0.999684513016639
0.9996839523271471
0.9996834112474436
0.999682897230575
0.9996824169501586
0.9996819763360101
0.9996815806196278
0.9996812343840419
0.999680941615414
0.9996807057545704
0.999680529747388
0.9996804160927849
0.9996803668880085
0.9996803838706365
0.9996804684573674
0.9996806217792829
0.9996808447138386
0.9996811379134091
0.9996815018307273
0.9996819367411188
0.9996824427618958
0.9996830198688573
0.9996836679102663
0.999684386618261
0.999685175618071
0.9996860344350113
0.9996869624996038
0.9996879591508138
0.9996890236377309
0.9996901551196941
0.999691352665168
0.999692615249383
0.9996939417510252
0.9996953309479966
0.999696781512518
0.9996982920056006
0.9996998608711429
0.9997014864296874
0.9997031668720759
0.9997049002530531
0.999706684485032
0.9997085173320838
0.9997103964043509
0.9997123191529492
0.9997142828655399
0.9997162846626485
0.9997183214948869
0.9997203901411589
0.9997224872079865
0.9997246091300372
0.999726752171962
0.9997289124316249
0.9997310858448026
0.9997332681914269
0.9997354551034223
0.9997376420741919
0.9997398244697694
0.9997419975416795
0.9997441564414796
0.9997462962369996
0.9997484119302225
0.9997504984767862
0.9997525508070074
0.9997545638483836
0.9997565325494265
0.9997584519047541
0.9997603169812475
0.9997621229451819
0.9997638650900861
0.9997655388652219
0.9997671399044045
0.9997686640550315
0.9997701074070182
0.9997714663215012
0.9997727374589843
0.9997739178067964
0.9997750047055276
0.9997759958743281
0.9997768894347522
0.9997776839330479
0.9997783783606065
0.9997789721725138
0.9997794653039508
0.9997798581844386
0.999780151749728
0.9997803474513877
0.999780447263948
0.9997804536897129
0.9997803697611675
0.9997801990411452
0.999779945620723
0.9997796141150683
0.9997792096572108
0.9997787378899756
0.9997782049560132
0.9997776174860868
0.999776982585432
0.9997763078181512
0.9997756011891177
0.9997748711228345
0.9997741264381448
0.9997733763179375
0.999772630271286
0.9997718980842955
0.999771189755018
0.9997705154195465
0.9997698852547446
0.9997693093543739
0.9997687975378777
0.9997683593864225
0.9997680040505386
0.9997677410143363
0.9997675799136649
0.9997675320492453
0.9997676067518995
0
0
0.99968986037663
0.9996896780317507
0.9996894191740703
0.999689090271532
0.9996887007126306
0.9996882600972019
0.99968777825736
0.9996872651435617
0.9996867305012991
0.9996861838043323
0.9996856341308389
0.999685090038496
0.9996845594993676
0.9996840498529893
0.999683567786007
0.9996831193354615
0.9996827099080263
0.9996823443085406
0.9996820267748945
0.9996817610171393
0.999681550258217
0.9996813972749897
0.9996813044382057
0.9996812737510076
0.9996813068851448
0.9996814052148759
0.9996815698480519
0.9996818016546009
0.9996821012920762
0.9996824692286039
0.9996829057629946
0.9996834110423931
0.999683985077309
0.9996846277544111
0.9996853388469598
0.9996861180232668
0.9996869648530838
0.9996878788122944
0.9996888592858234
0.9996899055691416
0.9996910168682775
0.9996921922986993
0.9996934308830053
0.999694731547753
0.9996960931193855
0.9996975143195643
0.9996989937598869
0.9997005299362681
0.9997021212229842
0.9997037658666443
0.9997054619800934
0.9997072075364923
0.9997090003635968
0.9997108381384634
0.9997127183826061
0.9997146384578198
0.9997165955627026
0.999718586730068
0.9997206088252901
0.9997226585457469
0.9997247324214082
0.9997268268167088
0.9997289379337524
0.9997310618169601
0.9997331943591954
0.9997353313094557
0.999737468282153
0.9997396007680306
0.9997417241467245
0.9997438337009825
0.999745924632527
0.9997479920795255
0.9997500311356401
0.9997520368705737
0.9997540043520496
0.9997559286691033
0.9997578049566006
0.9997596284207986
0.9997613943658589
0.9997630982210725
0.9997647355686836
0.999766302172046
0.9997677940039702
0.9997692072749707
0.9997705384612676
0.999771784332224
0.9997729419770823
0.9997740088306717
0.9997749826979634
0.9997758617771566
0.9997766446811934
0.999777330457407
0.9997779186052449
0.9997784090918032
0.9997788023651599
0.9997790993652909
0.9997793015326207
0.9997794108140258
0.999779429666418
0.9997793610577675
0.9997792084657453
0.9997789758738864
0.999778667765486
0.9997782891151356
0.9997778453781089
0.9997773424774632
0.9997767867889897
0.9997761851237349
0.9997755447080371
0.9997748731605597
0.9997741784659314
0.9997734689438048
0.9997727532122749
0.9997720401444204
0.9997713388172964
0.9997706584483151
0.999770008318435
0.9997693976846366
0.9997688357035175
0.9997683313193333
0.9997678932737716
0.9997675301226414
0.9997672504164127
0.9997670627307534
0.9997669765889442
0.9997669987798862
0
0
0.9996906663931291
0.9996903930546874
0.9996900631254182
0.9996896813221374
0.9996892544123895
0.9996887896002646
0.9996882948209037
0.9996877782145769
0.9996872479080203
0.9996867119107049
0.999686177961952
0.9996856534391444
0.9996851452803156
0.9996846599283936
0.9996842033029657
0.9996837807913814
0.9996833972531309
0.9996830570353681
0.9996827639962529
0.9996825215334393
0.9996823326151741
0.9996821998129741
0.9996821253343169
0.9996821110548638
0.9996821585492022
0.9996822691200563
0.9996824438253136
0.9996826835030456
0.9996829887940688
0.999683360162356
0.9996837979129659
0.9996843022078677
0.9996848730794002
0.9996855104417793
0.999686214100433
0.9996869837595885
0.9996878190279238
0.9996887194227033
0.9996896843722382
0.9996907132170716
0.9996918052097576
0.9996929595136086
0.999694175200313
0.9996954512467676
0.999696786531042
0.999698179827816
0.9996996298032085
0.9997011350093249
0.9997026938784614
0.999704304717268
0.9997059657008307
0.9997076748669488
0.999709430110588
0.9997112291787639
0.9997130696658467
0.9997149490095278
0.9997168644874479
0.9997188132147017
0.9997207921422333
0.9997227980563114
0.9997248275791049
0.9997268771705183
0.9997289431313162
0.9997310216076611
0.9997331085970881
0.9997351999560171
0.9997372914088131
0.9997393785584547
0.9997414568988149
0.9997435218285669
0.9997455686667107
0.9997475926696794
0.9997495890500012
0.9997515529964383
0.999753479695543
0.999755364354507
0.9997572022252239
0.999758988629387
0.9997607189845223
0.9997623888307338
0.9997639938580325
0.9997655299339935
0.9997669931316023
0.9997683797569856
0.9997696863768947
0.9997709098456111
0.9997720473311398
0.999773096340358
0.9997740547429957
0.9997749207941095
0.9997756931549728
0.9997763709120461
0.9997769535939888
0.999777441186415
0.9997778341443976
0.9997781334024632
0.9997783403821408
0.9997784569968484
0.9997784856542393
0.9997784292558355
0.9997782911941215
0.9997780753469513
0.9997777860694741
0.999777428183442
0.999777006964087
0.9997765281243873
0.9997759977968563
0.9997754225125426
0.9997748091772167
0.9997741650441783
0.9997734976834407
0.9997728149465164
0.9997721249260568
0.9997714359087416
0.9997707563214707
0.9997700946708163
0.9997694594751013
0.9997688591856159
0.9997683021204719
0.9997677964075371
0.9997673499567413
0.9997669704870283
0.9997666655721064
0.9997664423124394
0.9997663083910574
0.9997662691340006
0
0
0.9996915363261759
0.9996911681429707
0.9996907616653659
0.9996903201974386
0.999689848154437
0.9996893509904075
0.9996888348817481
0.999688306319696
0.9996877719762327
0.9996872385158817
0.9996867124558226
0.9996862000742474
0.9996857073280435
0.9996852397978103
0.999684802652397
0.9996844006297677
0.999684038031815
0.9996837187305945
0.9996834461821112
0.9996832234458471
0.9996830532077932
0.9996829378059255
0.9996828792564195
0.9996828792801704
0.9996829393284926
0.9996830606079558
0.9996832441035479
0.9996834906003718
0.9996838007032793
0.99968417485478
0.9996846133507781
0.9996851163545338
0.9996856839085034
0.9996863159444835
0.9996870122917695
0.9996877726837732
0.9996885967628437
0.9996894840837421
0.9996904341155389
0.9996914462423736
0.9996925197628825
0.999693653888702
0.9996948477418899
0.9996961003516479
0.9996974106502093
0.9996987774682573
0.9997001995297531
0.999701675446534
0.999703203712556
0.9997047826981441
0.9997064106441345
0.9997080856562424
0.9997098056995773
0.9997115685936043
0.999713372007489
0.9997152134561148
0.9997170902967158
0.9997189997263914
0.9997209387804608
0.9997229043318985
0.9997248930918214
0.9997269016112257
0.9997289262839724
0.9997309633511704
0.999733008906962
0.99973505890583
0.9997371091714166
0.9997391554069458
0.9997411932072207
0.9997432180722466
0.9997452254224437
0.9997472106154401
0.9997491689644024
0.9997510957578416
0.9997529862808255
0.9997548358374875
0.9997566397747409
0.9997583935070342
0.99976009254204
0.9997617325070549
0.9997633091759894
0.999764818496683
0.9997662566184062
0.9997676199192486
0.9997689050332468
0.9997701088769286
0.9997712286751315
0.999772261985752
0.9997732067233028
0.9997740611809356
0.9997748240508291
0.9997754944426184
0.9997760718997993
0.9997765564138116
0.9997769484357888
0.9997772488857033
0.9997774591589647
0.9997775811302232
0.9997776171545103
0.9997775700654988
0.9997774431710582
0.9997772402459268
0.9997769655217004
0.9997766236739575
0.9997762198067277
0.9997757594340788
0.9997752484589698
0.9997746931490568
0.9997741001094905
0.999773476252223
0.9997728287616294
0.9997721650557727
0.9997714927432026
0.9997708195744728
0.999770153387776
0.999769502048766
0.9997688733878385
0.9997682751341556
0.9997677148521898
0.9997671998941111
0.9997667373534748
0.9997663340090237
0.9997659963961056
0.9997657304122844
0.9997655417817776
0.9997654346810144
0
0
0.9996924492412613
0.9996919845925837
0.9996914982427552
0.9996909922219614
0.9996904692221765
0.999689933257287
0.9996893889422123
0.999688841370699
0.9996882959014414
0.9996877579752398
0.999687232993396
0.9996867262162425
0.9996862426824413
0.9996857871529901
0.9996853640706337
0.9996849775354429
0.9996846312932249
0.9996843287343311
0.9996840728999876
0.9996838664948406
0.9996837119033501
0.9996836112091133
0.9996835662154477
0.9996835784668815
0.9996836492703141
0.9996837797158402
0.9996839706963255
0.9996842229259617
0.9996845369571071
0.9996849131957674
0.9996853519151769
0.9996858532679118
0.9996864172960824
0.9996870439400872
0.9996877330455364
0.9996884843688393
0.999689297581118
0.9996901722709391
0.9996911079455593
0.9996921040311708
0.9996931598718722
0.9996942747278365
0.9996954477724269
0.9996966780887131
0.9996979646651664
0.9996993063909633
0.9997007020507033
0.999702150318947
0.9997036497544007
0.9997051987941392
0.9997067957477099
0.9997084387914885
0.999710125963156
0.9997118551566361
0.9997136241173913
0.9997154304383938
0.9997172715566782
0.999719144750779
0.9997210471389711
0.999722975678587
0.9997249271663498
0.9997268982399543
0.999728885380857
0.9997308849184647
0.9997328930356914
0.9997349057760354
0.999736919052144
0.9997389286559811
0.9997409302705503
0.9997429194832497
0.9997448918008022
0.9997468426657777
0.9997487674746456
0.9997506615973137
0.999752520398076
0.9997543392578718
0.9997561135977528
0.9997578389034105
0.9997595107506394
0.9997611248315285
0.9997626769812478
0.9997641632051718
0.9997655797061861
0.99976692291189
0.9997681895015271
0.999769376432327
0.999770480965104
0.9997715006887632
0.999772433543586
0.9997732778429369
0.999774032293294
0.9997746960122513
0.9997752685444399
0.9997757498750314
0.9997761404408291
0.9997764411386398
0.9997766533309834
0.9997767788488777
0.999776819991814
0.9997767795246891
0.9997766606718731
0.9997764671081919
0.9997762029470485
0.9997758727254638
0.9997754813862617
0.9997750342571585
0.9997745370269479
0.9997739957184584
0.9997734166583975
0.9997728064436683
0.9997721719041901
0.9997715200616287
0.9997708580839979
0.9997701932358708
0.9997695328245106
0.9997688841414264
0.9997682544012488
0.9997676506807908
0.9997670798570109
0.9997665485493052
0.999766063071764
0.9997656293326264
0.9997652528183135
0.999764938406458
0.9997646902265118
0.9997645113502474
0
0
0.9996933867907415
0.9996928255563022
0.9996922574913552
0.9996916836308615
0.9996911054295398
0.999690525650382
0.9996899476257863
0.9996893752510124
0.9996888127126387
0.9996882643605143
0.9996877345821894
0.9996872277021093
0.999686747905157
0.9996862991794264
0.9996858852738346
0.9996855096707399
0.9996851755696872
0.9996848858810271
0.9996846432268673
0.9996844499481562
0.99968430811567
0.9996842195442587
0.9996841858086716
0.9996842082606885
0.9996842880462693
0.9996844261227744
0.9996846232752646
0.9996848801321546
0.9996851971794212
0.9996855747737811
0.9996860131541908
0.9996865124521487
0.9996870727002636
0.9996876938396038
0.9996883757253641
0.9996891181313832
0.9996899207530971
0.9996907832094678
0.9996917050435061
0.9996926857219279
0.999693724633591
0.9996948210872358
0.9996959743082132
0.9996971834347005
0.9996984475131122
0.9996997654931951
0.9997011362225363
0.9997025584409518
0.9997040307745096
0.9997055517296354
0.9997071196870787
0.9997087328961657
0.9997103894691381
0.9997120873759875
0.9997138244396029
0.9997155983316152
0.9997174065687865
0.9997192465102938
0.9997211153557771
0.9997230101444752
0.9997249277553383
0.9997268649083992
0.9997288181673148
0.999730783943323
0.9997327585005322
0.9997347379627491
0.9997367183217696
0.999738695447287
0.999740665098347
0.9997426229364486
0.9997445645402202
0.9997464854217091
0.9997483810442016
0.9997502468415621
0.9997520782389842
0.9997538706750858
0.9997556196252229
0.9997573206258928
0.9997589693000865
0.9997605613833953
0.9997620927507248
0.999763559443359
0.999764957696223
0.9997662839650375
0.9997675349532081
0.9997687076381118
0.9997697992966269
0.9997708075295427
0.9997717302847183
0.999772565878612
0.9997733130160861
0.9997739708081096
0.9997745387873084
0.9997750169209992
0.9997754056217187
0.9997757057549058
0.9997759186438109
0.9997760460713236
0.9997760902788605
0.9997760539620323
0.9997759402632929
0.9997757527613161
0.9997754954573437
0.9997751727582588
0.9997747894566529
0.9997743507076142
0.9997738620025002
0.9997733291393776
0.9997727581903423
0.9997721554653315
0.9997715274726121
0.999770880875557
0.9997702224458554
0.9997695590128
0.9997688974092931
0.999768244414738
0.9997676066951892
0.9997669907426461
0.9997664028133297
0.9997658488598433
0.9997653344694855
0.9997648647815003
0.999764444362408
0.999764077157564
0.9997637661198004
0.9997635133906035
0
0
0.999694332917465
0.9996936759194057
0.9996930253986135
0.9996923816711042
0.9996917452423103
0.9996911178502583
0.9996905017861997
0.9996898999030343
0.9996893153676623
0.9996887515633375
0.9996882119610143
0.999687700030731
0.9996872191681384
0.9996867726380968
0.999686363532554
0.9996859947415914
0.9996856689344555
0.9996853885498735
0.999685155793095
0.999684972638825
0.9996848408380078
0.9996847619279946
0.9996847372444069
0.9996847679345702
0.9996848549711802
0.9996849991663547
0.99968520118499
0.9996854615577695
0.9996857806929427
0.9996861588873462
0.999686596335923
0.999687093140292
0.999687649315724
0.9996882647971128
0.9996889394433779
0.9996896730408973
0.9996904653054655
0.9996913158833821
0.9996922243511964
0.9996931902147169
0.9996942129068466
0.9996952917848291
0.9996964261265107
0.9996976151261783
0.999698857889605
0.9997001534288533
0.9997015006564878
0.9997028983797275
0.9997043452942209
0.9997058399779474
0.9997073808849585
0.9997089663394385
0.9997105945298279
0.9997122635034582
0.9997139711614786
0.9997157152544928
0.9997174933787043
0.9997193029729756
0.9997211413166164
0.9997230055282721
0.9997248925657556
0.9997267992271552
0.9997287221530845
0.9997306578303609
0.9997326025970015
0.9997345526487739
0.9997365040471966
0.9997384527291853
0.9997403945182378
0.9997423251373005
0.9997442402232071
0.9997461353427732
0.9997480060104295
0.9997498477074152
0.9997516559023976
0.9997534260734839
0.9997551537314645
0.999756834444191
0.9997584638619232
0.9997600377434679
0.9997615519829347
0.9997630026368818
0.9997643859516562
0.9997656983906491
0.9997669366612787
0.9997680977413691
0.9997691789047534
0.9997701777457303
0.9997710922022364
0.9997719205773367
0.9997726615589327
0.9997733142372947
0.999773878120355
0.9997743531463934
0.9997747396940987
0.9997750385896701
0.999775251111006
0.999775378988676
0.9997754244037923
0.9997753899825095
0.9997752787873389
0.9997750943050239
0.9997748404312272
0.9997745214517855
0.9997741420208159
0.9997737071354246
0.9997732221073138
0.9997726925310094
0.9997721242490035
0.9997715233134947
0.9997708959450015
0.999770248487544
0.9997695873607596
0.9997689190086889
0.999768249845667
0.9997675861995836
0.9997669342527512
0.9997662999802607
0.9997656890868121
0.9997651069383994
0.9997645584810563
0.9997640481760031
0.9997635798408836
0.9997631566310033
0.9997627806103069
0.9997624532317142
0
0
0.9996952734811299
0.9996945221350901
0.9996937892235286
0.9996930745301952
0.9996923778223058
0.9996917000267178
0.9996910425695916