# vtk DataFile Version 2.0
2D-ADE data file 
ASCII
DATASET RECTILINEAR_GRID
DIMENSIONS 128 128 1 
X_COORDINATES 128 int
0 1 2 3 4 5 6 7 8 9 10 11 12 13 14 15 16 17 18 19 20 21 22 23 24 25 26 27 28 29 30 31 32 33 34 35 36 37 38 39 40 41 42 43 44 45 46 47 48 49 50 51 52 53 54 55 56 57 58 59 60 61 62 63 64 65 66 67 68 69 70 71 72 73 74 75 76 77 78 79 80 81 82 83 84 85 86 87 88 89 90 91 92 93 94 95 96 97 98 99 100 101 102 103 104 105 106 107 108 109 110 111 112 113 114 115 116 117 118 119 120 121 122 123 124 125 126 127 
Y_COORDINATES 128 int
0 1 2 3 4 5 6 7 8 9 10 11 12 13 14 15 16 17 18 19 20 21 22 23 24 25 26 27 28 29 30 31 32 33 34 35 36 37 38 39 40 41 42 43 44 45 46 47 48 49 50 51 52 53 54 55 56 57 58 59 60 61 62 63 64 65 66 67 68 69 70 71 72 73 74 75 76 77 78 79 80 81 82 83 84 85 86 87 88 89 90 91 92 93 94 95 96 97 98 99 100 101 102 103 104 105 106 107 108 109 110 111 112 113 114 115 116 117 118 119 120 121 122 123 124 125 126 127 
Z_COORDINATES 1 int
0
POINT_DATA 16384
SCALARS density double
LOOKUP_TABLE default
0
0
0
0
0
0
0
0
0
0
0
0
0
0
0
0
0
0
0
0
0
0
0
0
0
0
0
0
0
0
0
0
0
0
0
0
0
0
0
0
0
0
0
0
0
0
0
0
0
0
0
0
0
0
0
0
0
0
0
0
0
0
0
0
0
0
0
0
0
0
0
0
0
0
0
0
0
0
0
0
0
0
0
0
0
0
0
0
0
0
0
0
0
0
0
0
0
0
0
0
0
0
0
0
0
0
0
0
0
0
0
0
0
0
0
0
0
0
0
0
0
0
0
0
0
0
0
0
0
0.9996884262142501
0.999688498660542
0.9996884104179473
0.9996881014861421
0.9996875648001589
0.9996868392982549
0.9996859630672529
0.999684969198997
0.9996838874410483
0.9996827448127631
0.999681565094508
0.9996803689857161
0.9996791744446519
0.9996779970099215
0.9996768500653694
0.9996757450890947
0.9996746918826074
0.9996736987770729
0.9996727728171163
0.9996719199251044
0.9996711450478311
0.999670452287263
0.9996698450168154
0.9996693259845292
0.9996688974043068
0.999668561036256
0.9996683182570352
0.999668170121025
0.9996681174130534
0.9996681606933472
0.9996683003353077
0.9996685365566952
0.9996688694447331
0.9996692989756423
0.9996698250290608
0.9996704473978104
0.9996711657934226
0.9996719798478401
0.9996728891116838
0.999673893049459
0.9996749910320737
0.9996761823270159
0.9996774660865334
0.9996788413341483
0.9996803069498302
0.9996818616541419
0.9996835039916602
0.9996852323139738
0.9996870447625453
0.9996889392517229
0.9996909134521761
0.9996929647750216
0.9996950903569071
0.9996972870462966
0.9996995513912095
0.9997018796286454
0.9997042676759208
0.9997067111241312
0.9997092052339445
0.9997117449339075
0.9997143248214487
0.9997169391667178
0.9997195819194199
0.9997222467187384
0.9997249269064591
0.9997276155433488
0.9997303054288409
0.9997329891240316
0.9997356589779753
0.9997383071572217
0.9997409256785169
0.999743506444542
0.9997460412825422
0.9997485219856452
0.9997509403566545
0.9997532882540426
0.9997555576398632
0.9997577406292383
0.9997598295410823
0.9997618169496606
0.9997636957365921
0.9997654591428582
0.9997671008203926
0.9997686148827913
0.9997699959547065
0.9997712392194713
0.9997723404645256
0.9997732961242237
0.9997741033196356
0.9997747598949802
0.9997752644503733
0.9997756163706113
0.9997758158497794
0.9997758639115116
0.9997757624248175
0.99977551411544
0.9997751225728034
0.9997745922526684
0.9997739284757106
0.9997731374223128
0.9997722261239409
0.9997712024515648
0.9997700751016607
0.9997688535804005
0.9997675481867117
0.9997661699949335
0.9997647308378349
0.9997632432907614
0.999761720657643
0.9997601769594818
0.999758626925653
0.9997570859879591
0.9997555702767327
0.9997540966177944
0.9997526825238193
0.9997513461705769
0.999750106342953
0.9997489823717812
0.999747993938871
0.9997471605693483
0.9997465003613714
0.9997460299904904
0.999745763204325
0.9997457020360576
0.9997457823988193
0.9997459150741026
0
0
0.9996883542760808
0.9996884266449385
0.9996883267369173
0.999688029335357
0.9996875516061529
0.9996869103826578
0.9996861319281695
0.9996852435532231
0.9996842715526673
0.9996832396370772
0.9996821691887396
0.9996810792726655
0.9996799867288233
0.9996789063087885
0.999677850869323
0.9996768315615555
0.999675858010304
0.9996749384815369
0.9996740800379935
0.9996732886817379
0.9996725694837426
0.9996719267011273
0.9996713638827446
0.999670883963876
0.9996704893507136
0.9996701819953576
0.9996699634619501
0.9996698349845891
0.9996697975175719
0.9996698517785385
0.9996699982849924
0.9996702373847213
0.9996705692805383
0.9996709940498175
0.9996715116592129
0.9996721219749937
0.9996728247693564
0.9996736197231159
0.9996745064251112
0.9996754843687035
0.9996765529456856
0.99967771143795
0.9996789590072274
0.9996802946832158
0.999681717350402
0.9996832257338754
0.9996848183844242
0.999686493663198
0.9996882497262152
0.9996900845089802
0.9996919957114814
0.9996939807838191
0.9996960369127228
0.9996981610091831
0.999700349697455
0.9997025993056343
0.999704905858042
0.9997072650696053
0.9997096723424439
0.9997121227648252
0.9997146111126661
0.9997171318537174
0.9997196791545748
0.9997222468906076
0.9997248286589127
0.9997274177943382
0.9997300073886294
0.9997325903126933
0.9997351592419774
0.9997377066848907
0.9997402250142124
0.9997427065013408
0.9997451433532618
0.9997475277520281
0.9997498518965566
0.9997521080464659
0.9997542885677012
0.9997563859796049
0.9997583930031213
0.9997603026097446
0.9997621080708488
0.9997638030069712
0.999765381436661
0.9997668378244472
0.999768167127517
0.9997693648406759
0.999770427039188
0.999771350419092
0.9997721323346443
0.9997727708325255
0.9997732646825352
0.9997736134044977
0.9997738172911829
0.9997738774270789
0.9997737957029357
0.999773574826034
0.9997732183262373
0.9997727305579123
0.9997721166979211
0.9997713827399135
0.9997705354852573
0.9997695825309733
0.9997685322551384
0.9997673938002247
0.999766177054929
0.9997648926350018
0.9997635518636203
0.9997621667517436
0.9997607499787775
0.9997593148736174
0.999757875395817
0.9997564461158845
0.999755042192559
0.9997536793428938
0.9997523738006274
0.9997511422531336
0.999750001735457
0.9997489694209247
0.9997480623079907
0.9997472967774504
0.9997466879469099
0.9997462473401153
0.9997459793544564
0.9997458765109888
0.999745914023504
0.9997460461697568
0
0
0.9996884429186523
0.9996885269713733
0.9996884268316676
0.9996881429269382
0.9996877019439657
0.9996871161228132
0.9996864078928202
0.999685599934281
0.9996847144643445
0.9996837721417409
0.9996827921391088
0.9996817918105804
0.9996807866852022
0.9996797905433943
0.9996788155403933
0.999677872330028
0.9996769701976156
0.9996761171930337
0.9996753202589105
0.9996745853510144
0.9996739175501861
0.9996733211655175
0.9996727998286132
0.9996723565791532
0.9996719939419738
0.9996717139961171
0.9996715184361727
0.9996714086263931
0.9996713856479384
0.9996714503397234
0.9996716033332214
0.9996718450816747
0.99967217588405
0.9996725959041658
0.9996731051853202
0.9996737036608113
0.9996743911606735
0.999675167414994
0.9996760320541225
0.9996769846061149
0.9996780244917137
0.9996791510171881
0.9996803633653181
0.9996816605848379
0.9996830415786092
0.9996845050908175
0.9996860496934618
0.999687673772406
0.9996893755132641
0.9996911528873631
0.9996930036380485
0.9996949252675688
0.9996969150247804
0.9996989698939063
0.9997010865845692
0.9997032615233153
0.9997054908468422
0.9997077703971091
0.9997100957185413
0.9997124620574684
0.9997148643639889
0.9997172972963658
0.9997197552281124
0.9997222322578423
0.9997247222219924
0.9997272187104558
0.9997297150851839
0.9997322045017397
0.9997346799338086
0.9997371342005942
0.9997395599970421
0.9997419499267537
0.9997442965374732
0.9997465923589446
0.9997488299429568
0.9997510019053049
0.9997531009694347
0.9997551200114295
0.9997570521060525
0.999758890573461
0.9997606290262576
0.999762261416454
0.9997637820819932
0.9997651857923819
0.9997664677930723
0.9997676238481487
0.9997686502809674
0.9997695440123425
0.9997703025959537
0.9997709242506249
0.9997714078892176
0.9997717531438564
0.9997719603873199
0.9997720307504143
0.9997719661352662
0.9997717692244683
0.9997714434861315
0.9997709931749031
0.9997704233291328
0.9997697397643616
0.9997689490634377
0.9997680585635461
0.9997670763405423
0.9997660111909477
0.9997648726120345
0.9997636707803456
0.9997624165290044
0.9997611213239924
0.9997597972394396
0.9997584569315796
0.9997571136106255
0.9997557810091194
0.9997544733444702
0.9997532052702346
0.9997519918085408
0.9997508482536366
0.999749790044812
0.9997488325506475
0.999747990707091
0.9997472784006892
0.9997467081092154
0.9997462894468837
0.9997460266517846
0.9997459130872876
0.9997459510886533
0.9997461260387747
0
0
0.9996887527915255
0.9996888255167002
0.9996887109301974
0.9996884259869786
0.9996879986944731
0.9996874446704698
0.9996867833566665
0.9996860330791665
0.9996852127990529
0.999684340674446
0.9996834336763458
0.9996825073427815
0.9996815757981128
0.999680651741648
0.9996797464916929
0.9996788700636942
0.9996780312678554
0.9996772378098402
0.9996764963918743
0.9996758128117491
0.999675192057552
0.9996746383967361
0.9996741554587835
0.9996737463112827
0.9996734135292329
0.9996731592577353
0.9996729852681261
0.9996728930078789
0.9996728836444362
0.9996729581033675
0.9996731171010564
0.999673361172321
0.9996736906932125
0.9996741058993723
0.9996746069002086
0.999675193689264
0.9996758661510308
0.9996766240645729
0.9996774671042077
0.9996783948375896
0.9996794067214477
0.9996805020952987
0.9996816801733868
0.9996829400351491
0.9996842806144608
0.9996857006879399
0.9996871988625573
0.9996887735628208
0.9996904230177731
0.999692145248055
0.9996939380532737
0.9996957989999015
0.9996977254099484
0.9996997143506128
0.9997017626251432
0.9997038667650976
0.9997060230242237
0.999708227374122
0.999710475501893
0.9997127628099155
0.9997150844179257
0.9997174351675129
0.9997198096291793
0.9997222021120301
0.9997246066762147
0.999727017148135
0.9997294271385004
0.9997318300631914
0.9997342191669589
0.9997365875498712
0.9997389281964701
0.999741234007491
0.9997434978340431
0.9997457125140515
0.9997478709107843
0.999749965953205
0.9997519906779252
0.999753938272424
0.9997558021192687
0.9997575758409539
0.999759253345041
0.9997608288691914
0.9997622970257448
0.9997636528454151
0.9997648918197513
0.9997660099419347
0.9997670037455748
0.9997678703411017
0.9997686074494527
0.9997692134326984
0.999769687321374
0.9997700288382192
0.999770238418183
0.9997703172244947
0.9997702671607411
0.9997700908788649
0.9997697917831392
0.9997693740301403
0.9997688425248833
0.9997682029132539
0.9997674615710044
0.9997666255895268
0.9997657027587403
0.9997647015473495
0.9997636310808101
0.9997625011172112
0.9997613220212853
0.9997601047365275
0.9997588607552984
0.9997576020863701
0.9997563412189414
0.9997550910811092
0.9997538649902893
0.9997526765921437
0.9997515397827579
0.9997504685963622
0.9997494770477842
0.9997485789226738
0.9997477875602675
0.9997471153497776
0.9997465730966585
0.9997461689543123
0.9997459098724364
0.9997457978144129
0.9997458488344495
0.9997460669834675
0
0
0.9996892925834083
0.9996893061555463
0.9996891531173099
0.9996888514297513
0.9996884220611684
0.9996878816497002
0.9996872473623636
0.9996865353517042
0.9996857620330484
0.9996849430951016
0.9996840934066179
0.9996832268120347
0.9996823560355261
0.9996814926252606
0.9996806469751546
0.9996798283701784
0.9996790450478299
0.9996783042700856
0.9996776124018216
0.9996769749906406
0.9996763968452347
0.9996758821108405
0.9996754343406058
0.9996750565622828
0.999674751339691
0.9996745208288986
0.999674366828942
0.9996742908272643
0.9996742940398786
0.9996743774465371
0.9996745418210168
0.9996747877568517
0.9996751156886671
0.9996755259094685
0.9996760185840665
0.999676593758992
0.9996772513690948
0.9996779912411782
0.9996788130948642
0.9996797165410336
0.999680701078039
0.9996817660860164
0.9996829108195061
0.9996841343986775
0.999685435799381
0.9996868138423052
0.9996882671814546
0.9996897942922184
0.9996913934592412
0.9996930627643509
0.9996948000747528
0.9996966030317286
0.9996984690400513
0.9997003952583259
0.9997023785904717
0.9997044156785336
0.9997065028970296
0.9997086363489963
0.9997108118639264
0.9997130249977416
0.9997152710349635
0.9997175449931969
0.9997198416300722
0.9997221554527105
0.9997244807298273
0.9997268115064982
0.9997291416216586
0.9997314647283093
0.9997337743164517
0.9997360637386676
0.9997383262383147
0.9997405549801884
0.9997427430835664
0.9997448836574209
0.999746969837653
0.9997489948260835
0.9997509519309805
0.999752834608812
0.999754636506952
0.999756351506975
0.9997579737682307
0.9997594977712954
0.9997609183609658
0.9997622307883757
0.9997634307518896
0.9997645144363573
0.9997654785503909
0.9997663203612809
0.9997670377272418
0.9997676291266452
0.9997680936840052
0.9997684311924221
0.9997686421323362
0.9997687276863905
0.9997686897503366
0.9997685309398857
0.9997682545935477
0.9997678647714513
0.9997673662503053
0.9997667645145781
0.999766065744146
0.9997652767985599
0.9997644051982271
0.9997634591026878
0.9997624472862472
0.9997613791110914
0.9997602644979975
0.9997591138945321
0.9997579382404781
0.9997567489298395
0.9997555577685511
0.9997543769262642
0.9997532188795205
0.9997520963418614
0.9997510221785981
0.9997500093008543
0.9997490705292224
0.9997482183875306
0.9997474648918913
0.999746821278084
0.999746297832593
0.9997459030763876
0.9997456459235159
0.9997455338799931
0.9997455831694309
0.9997458056476164
0
0
0.9996900253702209
0.9996899535380942
0.9996897423555838
0.9996894047228664
0.9996889564607001
0.9996884128744719
0.9996877888021464
0.9996870985261307
0.9996863561236017
0.999685575167456
0.9996847686733565
0.9996839488606574
0.9996831270519336
0.9996823136277582
0.9996815180188752
0.9996807487185237
0.9996800133190197
0.9996793185628233
0.9996786704011156
0.9996780740560848
0.9996775340844927
0.9996770544406579
0.9996766385371663
0.9996762893025231
0.9996760092349536
0.9996758004521351
0.9996756647364662
0.9996756035759461
0.9996756182005089
0.9996757096140343
0.9996758786220158
0.9996761258551835
0.9996764517891384
0.9996768567603248
0.9996773409784545
0.999677904535711
0.9996785474128788
0.9996792694827282
0.9996800705108112
0.9996809501539953
0.999681907956901
0.9996829433465607
0.9996840556254634
0.9996852439632988
0.9996865073875677
0.9996878447733542
0.9996892548324318
0.9996907361019853
0.9996922869331277
0.9996939054794665
0.9996955896859118
0.9996973372779596
0.9996991457516444
0.9997010123643744
0.9997029341268443
0.9997049077962185
0.9997069298707741
0.9997089965861724
0.999711103913539
0.9997132475594985
0.9997154229683181
0.9997176253262815
0.9997198495684263
0.999722090387722
0.9997243422467916
0.9997265993922134
0.9997288558714685
0.9997311055525127
0.9997333421459965
0.9997355592300601
0.9997377502776643
0.9997399086863313
0.999742027810199
0.999744100994196
0.9997461216101828
0.9997480830948128
0.9997499789888911
0.9997518029779283
0.9997535489336264
0.9997552109559348
0.9997567834153765
0.999758260995243
0.99975963873334
0.9997609120628492
0.9997620768519893
0.9997631294420376
0.9997640666834064
0.999764885969359
0.99976558526709
0.9997661631457992
0.9997666188015455
0.9997669520785624
0.9997671634869062
0.9997672542162017
0.9997672261454371
0.9997670818486769
0.9997668245967359
0.9997664583547846
0.9997659877760202
0.9997654181914617
0.9997647555960842
0.9997640066314125
0.9997631785648214
0.9997622792656837
0.9997613171785824
0.9997603012936503
0.999759241114112
0.999758146620878
0.9997570282339696
0.9997558967701347
0.9997547633957439
0.9997536395736524
0.9997525370027455
0.9997514675470364
0.999750443149956
0.9997494757296719
0.9997485770661025
0.9997477586609572
0.9997470315753367
0.9997464062078588
0.9997458924228575
0.9997454993447392
0.9997452367634994
0.9997451147333651
0.9997451469848008
0.9997453448876337
0
0
0.9996909152025899
0.9996907430145756
0.9996904574846958
0.9996900674856133
0.9996895857158811
0.9996890245103068
0.9996883962967582
0.9996877134251145
0.9996869879788646
0.9996862316991098
0.9996854558683033
0.9996846711595117
0.9996838875576972
0.9996831142956133
0.9996823598230609
0.9996816318057973
0.9996809371454505
0.9996802820119551
0.9996796718852128
0.9996791116029551
0.999678605411549
0.9996781570177081
0.9996777696393933
0.9996774460550429
0.999677188650119
0.9996769994606227
0.9996768802130306
0.9996768323606429
0.9996768571160561
0.9996769554799296
0.999677128265915
0.9996773761220171
0.9996776995483552
0.9996780989116342
0.9996785744563619
0.999679126313135
0.9996797545040805
0.9996804589457688
0.9996812394497123
0.9996820957207712
0.9996830273535836
0.9996840338273394
0.9996851144990323
0.9996862685954842
0.9996874952042979
0.9996887932640148
0.9996901615536373
0.9996915986817818
0.9996931030756296
0.999694672969926
0.9996963063961938
0.9996980011724081
0.9996997548932895
0.9997015649214515
0.9997034283795654
0.999705342143746
0.9997073028383311
0.9997093068322309
0.9997113502370144
0.999713428906881
0.9997155384406702
0.9997176741860306
0.9997198312458768
0.9997220044872213
0.9997241885524762
0.9997263778732719
0.9997285666868552
0.9997307490550552
0.9997329188858357
0.9997350699573768
0.9997371959446433
0.9997392904483191
0.9997413470260244
0.9997433592256141
0.9997453206204273
0.9997472248462247
0.9997490656396152
0.9997508368776632
0.9997525326184247
0.9997541471420425
0.9997556749921201
0.9997571110169624
0.9997584504103698
0.9997596887515613
0.999760822043894
0.9997618467519567
0.9997627598367181
0.999763558788319
0.9997642416562295
0.9997648070763939
0.9997652542951464
0.9997655831895729
0.9997657942841852
0.9997658887636574
0.9997658684815705
0.9997657359650259
0.9997654944151466
0.9997651477034338
0.9997647003640833
0.9997641575823116
0.9997635251788763
0.9997628095908891
0.999762017849151
0.9997611575521103
0.9997602368366528
0.9997592643457595
0.9997582491931185
0.9997572009245246
0.9997561294759143
0.9997550451275649
0.9997539584538964
0.99975288026766
0.9997518215573674
0.9997507934170592
0.9997498069681022
0.9997488732677572
0.999748003207497
0.9997472074072168
0.9997464961407008
0.9997458792261663
0.9997453661502145
0.9997449661522476
0.9997446888116103
0.999744544093842
0.9997445443587561
0.9997446985670094
0
0
0.9996919310731464
0.9996916488308463
0.999691277003665
0.999690822328163
0.9996902944690526
0.999689702990531
0.9996890581768098
0.999688370372436
0.999687649819396
0.9996869065541021
0.9996861502676334
0.9996853902046474
0.9996846350757518
0.9996838929903643
0.9996831714227308
0.9996824772001419
0.9996818165076605
0.999681194906911
0.9996806173652356
0.9996800882915945
0.9996796115762665
0.9996791906327122
0.9996788284397814
0.9996785275832902
0.9996782902958419
0.9996781184944902
0.999678013815586
0.9996779776467324
0.9996780111554567
0.999678115314729
0.9996782909251096
0.9996785386337609
0.9996788589502246
0.9996792522592515
0.9996797188306602
0.9996802588265401
0.9996808723058167
0.9996815592265154
0.9996823194457638
0.9996831527178704
0.9996840586905471
0.9996850368995965
0.9996860867621572
0.9996872075688134
0.9996883984746755
0.9996896584897261
0.9996909864685478
0.9996923810997139
0.9996938408949719
0.9996953641784805
0.9996969490762427
0.9996985935059786
0.9997002951675881
0.9997020515344333
0.9997038598455862
0.9997057170992646
0.9997076200475968
0.9997095651929104
0.9997115487856959
0.9997135668244049
0.9997156150572192
0.9997176889859326
0.9997197838720551
0.9997218947452445
0.9997240164141548
0.9997261434797549
0.9997282703511813
0.9997303912641201
0.9997325003017442
0.9997345914181448
0.9997366584642289
0.999738695215964
0.9997406954048857
0.9997426527506872
0.9997445609957434
0.9997464139413282
0.9997482054853254
0.9997499296611191
0.9997515806774263
0.9997531529586969
0.9997546411857994
0.9997560403365849
0.999757345726015
0.9997585530454198
0.9997596584005626
0.9997606583480727
0.9997615499299319
0.999762330705592
0.9997629987814405
0.9997635528372328
0.999763992149257
0.9997643166099123
0.9997645267435417
0.9997646237182699
0.9997646093537814
0.9997644861248768
0.9997642571608306
0.999763926240487
0.9997634977832057
0.9997629768356696
0.9997623690547472
0.9997616806864792
0.9997609185414195
0.99976008996641
0.9997592028130138
0.9997582654026336
0.9997572864884448
0.999756275214044
0.9997552410687476
0.9997541938391687
0.9997531435568363
0.9997521004413471
0.9997510748383991
0.9997500771515953
0.9997491177692405
0.9997482069874613
0.9997473549314709
0.9997465714729337
0.999745866184752
0.9997452483169691
0.9997447268714569
0.9997443107256835
0.9997440089282355
0.9997438303233607
0.9997437856613252
0.999743882419227
0
0
0.9996930450480543
0.9996926460131546
0.9996921796503642
0.9996916509892015
0.999691066827589
0.9996904346435145
0.9996897626890648
0.9996890594003156
0.9996883333220545
0.9996875929095385
0.9996868463938808
0.9996861016841457
0.9996853662801186
0.9996846472118377
0.9996839510005259
0.9996832836376122
0.9996826505806372
0.9996820567628226
0.9996815066120572
0.9996810040769317
0.9996805526573578
0.9996801554381237
0.9996798151234998
0.9996795340719982
0.9996793143300967
0.9996791576645307
0.9996790655923729
0.9996790394088194
0.9996790802121978
0.9996791889263132
0.9996793663198255
0.9996796130228908
0.9996799295408926
0.9996803162655438
0.9996807734832746
0.9996813013812241
0.9996819000507915
0.9996825694890925
0.9996833095983025
0.9996841201832403
0.9996850009472031
0.9996859514863906
0.9996869712829595
0.9996880596970323
0.9996892159577222
0.9996904391534771
0.99969172822183
0.999693081938843
0.999694498908339
0.9996959775511975
0.9996975160948295
0.9996991125630805
0.9997007647666909
0.9997024702945513
0.9997042265058842
0.999706030523575
0.9997078792287875
0.999709769257065
0.9997116969960473
0.9997136585849927
0.9997156499162108
0.9997176666385776
0.9997197041632203
0.9997217576715015
0.9997238221253778
0.9997258922802083
0.9997279627000614
0.9997300277755409
0.9997320817441453
0.9997341187131169
0.9997361326847498
0.9997381175840487
0.9997400672886546
0.9997419756608625
0.9997438365815896
0.9997456439860528
0.9997473919009574
0.9997490744828912
0.9997506860576743
0.9997522211603043
0.9997536745752028
0.9997550413763584
0.9997563169670428
0.9997574971186688
0.9997585780084539
0.99975955625545
0.9997604289546101
0.9997611937084679
0.9997618486561324
0.9997623924992092
0.9997628245244041
0.9997631446224765
0.9997633533033741
0.9997634517072884
0.9997634416115577
0.9997633254332338
0.9997631062273424
0.9997627876807449
0.9997623741017175
0.9997618704052441
0.9997612820942151
0.9997606152365888
0.9997598764387559
0.9997590728151889
0.9997582119546194
0.9997573018827951
0.9997563510220032
0.9997553681473238
0.9997543623397114
0.9997533429357249
0.9997523194738166
0.9997513016369767
0.9997502991920111
0.9997493219253641
0.9997483795758193
0.9997474817658822
0.9997466379386483
0.9997458573001553
0.9997451487837129
0.9997445210454993
0.9997439825016727
0.9997435413499368
0.9997432058628519
0.9997429838176696
0.9997428839159004
0.9997429124598808
0
0
0.999694231499351
0.999693711813613
0.9996931453926189
0.9996925356798892
0.9996918872784367
0.9996912059289097
0.9996904980145788
0.9996897703022348
0.99968902977558
0.9996882834264539
0.9996875381350744
0.9996868005637086
0.9996860770734981
0.9996853736649463
0.9996846959353912
0.9996840490544214
0.9996834377541743
0.9996828663315317
0.9996823386594013
0.9996818582052779
0.9996814280545403
0.9996810509370253
0.9996807292551344
0.9996804651126667
0.9996802603431445
0.9996801165372396
0.9996800350684785
0.9996800171171457
0.9996800636918256
0.9996801756486998
0.9996803537082283
0.9996805984694455
0.9996809104216257
0.9996812899536188
0.9996817373606938
0.9996822528492272
0.9996828365391345
0.9996834884643894
0.9996842085715835
0.9996849967168654
0.9996858526612399
0.9996867760645705
0.9996877664782842
0.9996888233371136
0.9996899459498971
0.9996911334897572
0.9996923849837032
0.9996936993019563
0.9996950751470667
0.9996965110431024
0.9996980053249994
0.9996995561283394
0.9997011613796497
0.9997028187874856
0.9997045258343967
0.9997062797700236
0.999708077605428
0.9997099161088875
0.9997117918032609
0.9997137009651259
0.9997156396257958
0.9997176035743863
0.9997195883630253
0.9997215893143397
0.999723601531296
0.9997256199094804
0.9997276391518655
0.9997296537861007
0.9997316581843306
0.9997336465855206
0.9997356131202492
0.9997375518378779
0.9997394567360061
0.9997413217920498
0.9997431409968023
0.9997449083897364
0.9997466180958531
0.9997482643637726
0.9997498416048127
0.9997513444326953
0.9997527677035825
0.9997541065560308
0.9997553564505393
0.9997565132082431
0.9997575730484205
0.9997585326243517
0.999759389057201
0.9997601399674748
0.9997607835037633
0.9997613183683403
0.9997617438393922
0.9997620597895057
0.9997622667002537
0.9997623656725896
0.9997623584329793
0.9997622473350687
0.999762035356907
0.9997617260936309
0.9997613237457148
0.9997608331027795
0.9997602595231609
0.9997596089092846
0.9997588876791118
0.9997581027337444
0.9997572614214718
0.9997563714983455
0.9997554410855474
0.9997544786235844
0.9997534928235313
0.9997524926153298
0.9997514870933659
0.9997504854592975
0.9997494969625271
0.9997485308390412
0.9997475962499353
0.9997467022204255
0.9997458575840099
0.9997450709362455
0.9997443506024751
0.9997437046220538
0.9997431407729864
0.9997426665104757
0.9997422891496515
0.9997420154959387
0.9997418524157081
0.9997418049921865
0
0
0.9996954675126207
0.9996948253582978
0.9996941552701353
0.9996934594005003
0.9996927407317863
0.9996920034550706
0.9996912523656136
0.999690492768226
0.9996897302216
0.9996889703849006
0.9996882188928187
0.9996874812484511
0.9996867627443436
0.9996860684030306
0.9996854029343362
0.9996847707088721
0.9996841757441968
0.9996836217021007
0.9996831118945313
0.9996826492963993
0.9996822365629985
0.9996818760509109
0.999681569840704
0.999681319760697
0.9996811274105615
0.9996809941844346
0.9996809212926725
0.9996809097821926
0.9996809605547876
0.999681074383546
0.9996812519269467
0.9996814937408748
0.9996818002882478
0.999682171946573
0.9996826090132148
0.9996831117087186
0.9996836801780434
0.999684314490058
0.9996850146351994
0.9996857805216582
0.9996866119700111
0.9996875087066698
0.9996884703560931
0.9996894964321221
0.9996905863284045
0.9996917393082597
0.999692954493976
0.999694230855873
0.9996955672011424
0.999696962162786
0.9996984141886895
0.9996999215311264
0.9997014822367573
0.9997030941373983
0.9997047548416426
0.9997064617275898
0.9997082119367768
0.9997100023695523
0.9997118296819847
0.999713690284527
0.9997155803425316
0.9997174957788023
0.9997194322782655
0.9997213852949212
0.9997233500611299
0.9997253215993549
0.9997272947363863
0.999729264120112
0.9997312242388298
0.9997331694431001
0.9997350939700909
0.99973699197034
0.9997388575368444
0.9997406847363195
0.999742467642481
0.9997442003711281
0.9997458771168138
0.9997474921908115
0.9997490400601104
0.9997505153870871
0.999751913069536
0.999753228280657
0.9997544565086488
0.9997555935954703
0.9997566357744088
0.9997575797059937
0.9997584225119102
0.9997591618064524
0.9997597957252049
0.9997603229505255
0.9997607427335685
0.99976105491248
0.9997612599265768
0.999761358826222
0.9997613532782972
0.9997612455670737
0.9997610385904881
0.9997607358517211
0.9997603414461861
0.9997598600439164
0.9997592968675612
0.9997586576660424
0.9997579486841651
0.999757176628281
0.9997563486283416
0.9997554721964619
0.9997545551823407
0.9997536057256635
0.9997526322058292
0.9997516431891196
0.9997506473737243
0.9997496535329153
0.9997486704569167
0.9997477068940498
0.9997467714927445
0.9997458727458448
0.9997450189392697
0.9997442181080312
0.9997434780029792
0.9997428060572039
0.9997422093878628
0.999741694733989
0.9997412684755361
0.9997409364467488
0.9997407040839924
0.9997405753579302
0
0
0.9996967326651981
0.9996959675719576
0.9996951916687142
0.99969440613825
0.9996936126859635
0.9996928141883368
0.9996920141165739
0.9996912164740164
0.9996904255476351
0.9996896457918768
0.9996888816962826
0.9996881376897394
0.9996874180648103
0.9996867269199364
0.9996860681177575
0.9996854452576854
0.9996848616599443
0.9996843203598857
0.9996838241100592
0.9996833753887132
0.999682976412725
0.9996826291540113
0.9996823353577663
0.9996820965619693
0.9996819141169286
0.9996817892046275
0.9996817228569553
0.9996817159728324
0.9996817693335578
0.9996818836165531
0.9996820594070126
0.9996822972077298
0.999682597446746
0.9996829604831465
0.9996833866107468
0.9996838760600243
0.9996844289980984
0.9996850455271363
0.9996857256810324
0.9996864694207399
0.9996872766281375
0.9996881470988088
0.999689080533646
0.9996900765296476
0.999691134569842
0.999692254012703
0.9996934340810091
0.9996946738505016
0.9996959722383186
0.9996973279915387
0.9996987396758437
0.9997002056646183
0.9997017241285123
0.9997032930257745
0.9997049100933972
0.9997065728393704
0.9997082785360945
0.9997100242152344
0.9997118066640719
0.9997136224236142
0.9997154677885249
0.9997173388090945
0.9997192312953218
0.9997211408232807
0.999723062743829
0.9997249921937902
0.9997269241096355
0.9997288532437482
0.9997307741832553
0.9997326813714532
0.9997345691317582
0.9997364316941459
0.9997382632239534
0.9997400578529325
0.9997418097123705
0.9997435129680918
0.9997451618570944
0.9997467507255581
0.999748274067927
0.999749726566731
0.9997511031328042
0.9997523989455009
0.9997536094925483
0.9997547306090748
0.9997557585154564
0.9997566898534953
0.9997575217205711
0.9997582517012923
0.9997588778963195
0.9997593989479153
0.9997598140619455
0.9997601230259457
0.9997603262230564
0.9997604246415157
0.9997604198796068
0.9997603141458486
0.9997601102544309
0.9997598116157819
0.9997594222223873
0.9997589466298379
0.9997583899333388
0.9997577577397397
0.9997570561354077
0.999756291650065
0.9997554712169825
0.9997546021296957
0.9997536919956576
0.999752748687041
0.9997517802891424
0.9997507950466251
0.9997498013081256
0.9997488074696016
0.9997478219171998
0.999746852970243
0.9997459088254398
0.9997449975036191
0.9997441268003395
0.9997433042405345
0.999742537041295
0.999741832070497
0.999741195814874
0.9997406343325039
0.9997401531916423
0.9997397573352462
0.9997394510678271
0.9997392374809763
0
0
0.9996980086498842
0.99969712104722
0.9996962382908752
0.9996953608171443
0.9996944892997625
0.9996936255387525