# vtk DataFile Version 2.0
2D-ADE data file 
ASCII
DATASET RECTILINEAR_GRID
DIMENSIONS 128 128 1 
X_COORDINATES 128 int
0 1 2 3 4 5 6 7 8 9 10 11 12 13 14 15 16 17 18 19 20 21 22 23 24 25 26 27 28 29 30 31 32 33 34 35 36 37 38 39 40 41 42 43 44 45 46 47 48 49 50 51 52 53 54 55 56 57 58 59 60 61 62 63 64 65 66 67 68 69 70 71 72 73 74 75 76 77 78 79 80 81 82 83 84 85 86 87 88 89 90 91 92 93 94 95 96 97 98 99 100 101 102 103 104 105 106 107 108 109 110 111 112 113 114 115 116 117 118 119 120 121 122 123 124 125 126 127 
Y_COORDINATES 128 int
0 1 2 3 4 5 6 7 8 9 10 11 12 13 14 15 16 17 18 19 20 21 22 23 24 25 26 27 28 29 30 31 32 33 34 35 36 37 38 39 40 41 42 43 44 45 46 47 48 49 50 51 52 53 54 55 56 57 58 59 60 61 62 63 64 65 66 67 68 69 70 71 72 73 74 75 76 77 78 79 80 81 82 83 84 85 86 87 88 89 90 91 92 93 94 95 96 97 98 99 100 101 102 103 104 105 106 107 108 109 110 111 112 113 114 115 116 117 118 119 120 121 122 123 124 125 126 127 
Z_COORDINATES 1 int
0
POINT_DATA 16384
SCALARS density double
LOOKUP_TABLE default
0
0
0
0
0
0
0
0
0
0
0
0
0
0
0
0
0
0
0
0
0
0
0
0
0
0
0
0
0
0
0
0
0
0
0
0
0
0
0
0
0
0
0
0
0
0
0
0
0
0
0
0
0
0
0
0
0
0
0
0
0
0
0
0
0
0
0
0
0
0
0
0
0
0
0
0
0
0
0
0
0
0
0
0
0
0
0
0
0
0
0
0
0
0
0
0
0
0
0
0
0
0
0
0
0
0
0
0
0
0
0
0
0
0
0
0
0
0
0
0
0
0
0
0
0
0
0
0
0
1.0003373776421536
1.0003288056438138
1.000321409450399
1.00031582497922
1.0003094772479495
1.0003019913273594
1.0002935774696915
1.000284354149373
1.0002743931887652
1.000263788612867
1.0002526467772954
1.0002410734691918
1.00022917166007
1.0002170409836486
1.000204776217403
1.0001924656979273
1.000180190150145
1.0001680219070788
1.0001560244617198
1.0001442523173947
1.0001327510949685
1.000121557848269
1.0001107015415138
1.0001002036476212
1.000090078830829
1.000080335680833
1.000070977469132
1.0000620029018827
1.0000534068474867
1.0000451810213844
1.0000373146149912
1.0000297948600996
1.0000226075242666
1.0000157373363905
1.0000091683448256
1.0000028842128308
0.9999968684579078
0.9999911046426798
0.999985576525437
0.9999802681784092
0.9999751640813599
0.9999702491972522
0.9999655090357178
0.9999609297088642
0.999956497982738
0.9999522013265733
0.9999480279608244
0.9999439669040158
0.9999400080176102
0.9999361420474553
0.9999323606599199
0.999928656470559
0.9999250230630592
0.9999214549962895
0.9999179477974962
0.999914497940013
0.999911102804284
0.9999077606214917
0.999904470399618
0.9999012318323227
0.999898045191568
0.9998949112054516
0.9998918309231861
0.9998888055695806
0.9998858363917386
0.999882924500939
0.9998800707128361
0.9998772753891835
0.9998745382842333
0.9998718583988325
0.9998692338449566
0.9998666617230914
0.999864138014411
0.9998616574891929
0.9998592136323337
0.999856798586236
0.9998544031107215
0.9998520165590808
0.9998496268688438
0.9998472205654875
0.999844782777027
0.9998422972573732
0.9998397464164736
0.9998371113556257
0.9998343719069641
0.9998315066770038
0.9998284930952381
0.9998253074701149
0.9998219250562352
0.9998183201382058
0.999814466138214
0.9998103357559054
0.9998059011504398
0.9998011341755305
0.9997960066786516
0.9997904908753268
0.9997845598083097
0.9997781878994381
0.9997713515989318
0.9997640301328847
0.9997562063447544
0.9997478676209295
0.9997390068841696
0.9997296236321942
0.9997197249922284
0.9997093267562022
0.9996984543556949
0.9996871437306227
0.9996754420408615
0.9996634081651002
0.9996511129262526
0.9996386389807635
0.9996260803165894
0.999613541312603
0.9996011352855989
0.9995889824846863
0.999577207997355
0.9995659405071202
0.9995553093123725
0.9995454309752656
0.999536399116712
0.9995283522429704
0.9995215201518727
0.9995155579952724
0.9995079333056122
0.9994992696367424
0
0
1.0003278743907065
1.0003240775296176
1.0003191180076036
1.0003134729403114
1.0003070125160805
1.000299748476897
1.0002916058534939
1.000282626677981
1.0002729076471888
1.0002625499174178
1.00025165288233
1.0002403174801133
1.0002286443592807
1.0002167311001307
1.0002046704304406
1.0001925489799666
1.0001804462417583
1.0001684337867698
1.0001565747814618
1.0001449237904747
1.0001335268247675
1.00012242159456
1.0001116379271922
1.0001011983112709
1.0000911185309513
1.0000814083573444
1.000072072267534
1.0000631101654178
1.0000545180826186
1.0000462888419697
1.0000384126704314
1.0000308777525564
1.0000236707196255
1.0000167770731307
1.0000101815443043
1.00000386839377
0.9999978216571477
0.9999920253435516
0.9999864635944496
0.9999811208103914
0.9999759817527166
0.9999710316266406
0.9999662561511821
0.9999616416203148
0.9999571749585914
0.999952843773374
0.9999486364047485
0.9999445419732796
0.9999405504249586
0.9999366525721044
0.9999328401285117
0.9999291057368965
0.9999254429865724
0.9999218464193765
0.999918311522027
0.9999148347034279
0.9999114132558206
0.9999080452991471
0.9999047297084955
0.9999014660250213
0.9998982543512497
0.9998950952321674
0.9998919895239631
0.9998889382526738
0.9998859424653185
0.9998830030763599
0.9998801207124817
0.9998772955587365
0.9998745272090832
0.9998718145241898
0.9998691554991422
0.9998665471433632
0.9998639853746399
0.9998614649286602
0.9998589792849399
0.9998565206094451
0.9998540797136691
0.9998516460293881
0.9998492075978583
0.9998467510718615
0.9998442617287804
0.999841723492831
0.9998391189647213
0.9998364294573721
0.9998336350369353
0.9998307145691773
0.9998276457723559
0.9998244052789736
0.9998209687102101
0.9998173107683066
0.9998134053536916
0.9998092257149978
0.9998047446412941
0.9997999347066243
0.9997947685772349
0.9997892193915034
0.9997832612214335
0.9997768696225667
0.9997700222762196
0.9997626997240745
0.999754886190382
0.9997465704815425
0.9997377469467781
0.9997284164772599
0.9997185875146961
0.9997082770342849
0.999697511461285
0.9996863274754216
0.9996747726530989
0.9996629058943853
0.9996507975805738
0.9996385294078483
0.9996261938442518
0.9996138931792942
0.9996017382049073
0.9995898465701439
0.999578340493917
0.9995673434116793
0.9995569775177537
0.9995473664422401
0.9995386288857556
0.9995308289667584
0.9995239143698802
0.999517916845488
0.9995127289699808
0.999508827801942
0
0
1.0003205684653527
1.000319389949406
1.0003159559159496
1.0003106394732217
1.000304507129036
1.0002975268674144
1.0002896246428687
1.000280888028961
1.000271418830233
1.0002613089832844
1.0002506545739225
1.0002395554215482
1.0002281100995294
1.0002164137606413
1.0002045570502438
1.0001926249355513
1.0001806956394972
1.000168839871616
1.0001571203481179
1.0001455915645472
1.0001342997964775
1.0001232832995295
1.0001125726737075
1.0001021913557646
1.0000921562049647
1.0000824781501827
1.0000731628693738
1.000064211476006
1.000055621190932
1.0000473859823253
1.00003949716047
1.0000319439183025
1.0000247138124176
1.000017793182679
1.0000111675114778
1.0000048217260227
0.9999987404487617
0.9999929082021837
0.9999873095748348
0.9999819293554878
0.9999767526421178
0.9999717649317177
0.9999669521961521
0.9999623009482668
0.9999577983014265
0.9999534320246037
0.9999491905941603
0.9999450632425891
0.9999410400037064
0.9999371117532323
0.9999332702432355
0.9999295081286717
0.9999258189841513
0.9999221973091018
0.9999186385196795
0.9999151389260629
0.999911695694132
0.9999083067909749
0.9999049709141299
0.9999016874049614
0.9998984561470625
0.999895277451035
0.999892151927426
0.999889080349978
0.9998860635116577
0.9998831020761553
0.9998801964277101
0.9998773465221643
0.9998745517421191
0.999871810758941
0.9998691214041382
0.999866480552323
0.9998638840175885
0.9998613264646721
0.9998588013357902
0.9998563007934927
0.9998538156793846
0.9998513354880505
0.9998488483551188
0.9998463410580537
0.9998437990280772
0.9998412063715808
0.9998385458995406
0.9998357991637996
0.9998329464996651
0.9998299670750581
0.9998268389474559
0.9998235391310533
0.9998200436778656
0.9998163277778989
0.9998123658848578
0.9998081318751186
0.9998035992487196
0.9997987413817677
0.9997935318398432
0.9997879447615292
0.9997819553200187
0.9997755402687463
0.9997686785741233
0.999761352134708
0.9997535465815608
0.9997452521492735
0.9997364646013545
0.9997271861875582
0.999717426604611
0.9997072039258814
0.999696545460175
0.9996854884952
0.9996740808776037
0.9996623813792445
0.9996504598006363
0.9996383967693753
0.9996262831966926
0.9996142193454034
0.9996023134950289
0.9995906803933388
0.999579439694563
0.9995687132707678
0.9995586197661726
0.99954927362879
0.9995407985293702
0.999533303640574
0.9995267380808854
0.9995210881155108
0.9995174268221915
0.9995161366133501
0
0
1.000316691096518
1.000315535401346
1.0003123952027204
1.0003078036662314
1.0003021051400058
1.000295342821498
1.0002876753012315
1.0002791930926813
1.0002699704510845
1.000260100238262
1.0002496822251632
1.0002388141413834
1.0002275914853513
1.0002161071869473
1.0002044500610519
1.0001927034373064
1.00018094422347
1.0001692422149109
1.0001576596102852
1.0001462507550607
1.0001350621054232
1.0001241323838577
1.0001134928941806
1.0001031679638122
1.0000931754813673
1.0000835274990567
1.0000742308718917
1.0000652879089151
1.0000566970153084
1.0000484533081149
1.0000405491922966
1.0000329748877343
1.000025718901438
1.000018768442543
1.0000121097804664
1.0000057285489075
0.9999996100000917
0.9999937392148244
0.999988101274586
0.9999826814020797
0.9999774650764399
0.9999724381288105
0.9999675868232437
0.9999628979269927
0.9999583587732991
0.999953957318807
0.9999496821968086
0.9999455227666796
0.999941469159159
0.9999375123165498
0.9999336440264996
0.9999298569477698
0.9999261446262828
0.9999225014997885
0.9999189228896296
0.9999154049783636
0.9999119447723369
0.9999085400487149
0.9999051892869099
0.999901891584818
0.9998986465607292
0.9998954542422092
0.9998923149436582
0.9998892291346063
0.9998861973010847
0.9998832198026434
0.9998802967277195
0.9998774277501171
0.9998746119893356
0.9998718478773496
0.99986913303425
0.9998664641548578
0.9998638369080671
0.9998612458502498
0.9998586843535873
0.9998561445497248
0.9998536172886409
0.9998510921121897
0.9998485572413855
0.9998459995761944
0.9998434047064368
0.999840756932381
0.9998380392937669
0.9998352336063587
0.9998323205056686
0.9998292794982777
0.9998260890221051
0.9998227265181024
0.9998191685170621
0.9998153907465124
0.9998113682639047
0.9998070756234178
0.9998024870846015
0.9997975768715971
0.9997923194917389
0.9997866901218102
0.9997806650689892
0.9997742223115357
0.999767342121435
0.9997600077675936
0.9997522062937789
0.9997439293604471
0.9997351741340755
0.9997259442018106
0.9997162504834478
0.999706112107202
0.9996955572107507
0.9996846236250244
0.999673359395797
0.9996618230972832
0.9996500838920346
0.9996382212956008
0.9996263246270665
0.9996144921582599
0.9996028299190544
0.9995914499781279
0.9995804684640753
0.9995700047107773
0.9995601805556131
0.9995511110827962
0.9995428926517143
0.9995356366313304
0.9995295204095921
0.999524604350816
0.9995212430448697
0.9995199798380766
0
0
1.0003137750616964
1.000312298959337
1.0003093599485728
1.0003051673745578
1.000299718273863
1.0002932158230062
1.000285807867092
1.0002775635996148
1.0002685745735436
1.0002589395815462
1.0002487538550051
1.0002381116859869
1.0002271067987367
1.0002158301780617
1.0002043685681556
1.0001928035485554
1.0001812106954522
1.0001696588624474
1.000158209685809
1.0001469173166573
1.0001358283541173
1.0001249819572489
1.0001144101115966
1.000104138021844
1.0000941846008136
1.0000845630261146
1.0000752813378364
1.0000663430533938
1.0000577477788721
1.0000494917997844
1.0000415686378497
1.0000339695640883
1.0000266840619991
1.0000197002377527
1.0000130051770784
1.000006585250777
1.0000004263725253
0.9999945142138619
0.9999888343819593
0.9999833725660823
0.9999781146585129
0.9999730468553266
0.999968155741761
0.9999634283661115
0.9999588523052172
0.9999544157236775
0.9999501074280912
0.9999459169167921
0.9999418344248754
0.9999378509637683
0.9999339583541744
0.9999301492509682
0.9999264171585116
0.9999227564348697
0.9999191622835544
0.9999156307316569
0.9999121585935572
0.9999087434197697
0.9999053834309011
0.9999020774371319
0.9998988247440568
0.9998956250461328
0.9998924783093596
0.9998893846451441
0.9998863441775764
0.9998833569065472
0.9998804225692652
0.9998775405027873
0.9998747095101455
0.999871927732537
0.9998691925298531
0.999866500371551
0.9998638467395397
0.999861226044352
0.9998586315554565
0.9998560553461033
0.9998534882526674
0.9998509198480308
0.9998483384282062
0.9998457310111382
0.9998430833464813
0.999840379935161
0.9998376040576854
0.9998347378105509
0.9998317621506078
0.9998286569479978
0.9998254010491714
0.9998219723525313
0.9998183479003879
0.9998145039920682
0.9998104163241504
0.9998060601647651
0.9998014105696599
0.9997964426481056
0.9997911318866597
0.999785454538167
0.9997793880820846
0.9997729117602032
0.9997660071890595
0.9997586590468086
0.9997508558281056
0.9997425906557438
0.9997338621325591
0.999724675211695
0.9997150420579027
0.9997049828675327
0.9996945266104598
0.999683711653695
0.999672586224371
0.9996612086705676
0.9996496474829527
0.9996379810431081
0.9996262970626847
0.9996146917084847
0.999603268513682
0.9995921371131304
0.9995814113383003
0.9995712066003075
0.999561639733902
0.9995528310776607
0.9995448934466408
0.999537916565808
0.9995320658166974
0.999527559041376
0.9995244060754331
0.9995228248599076
0
0
1.0003111722200604
1.0003096116632295
1.0003067714764642
1.0003026937594914
1.0002974554406798
1.0002912055350357
1.0002840212630897
1.000275999189296
1.0002672401976496
1.000257835033448
1.0002478753424329
1.0002374543146555
1.0002266633920576
1.0002155909032566
1.000204321409049
1.000192934741459
1.0001815050752503
1.000170100242823
1.000158781262419
1.0001476020507742
1.0001366093194408
1.000125842643942
1.0001153346827685
1.0001051115197448
1.0000951931030528
1.0000855937545459
1.000076322724298
1.0000673847675061
1.0000587807236865
1.0000505080813173
1.0000425615144495
1.0000349333812315
1.000027614177586
1.0000205929422799
1.0000138576123203
1.0000073953298168
1.0000011927032058
0.9999952360270224
0.9999895114651849
0.9999840052031546
0.9999787035743347
0.999973593165768
0.9999686609076606
0.9999638941505539
0.9999592807331604
0.9999548090430528
0.9999504680715697
0.9999462474635493
0.9999421375618472
0.999938129446057
0.9999342149644471
0.9999303867578786
0.9999266382743307
0.9999229637726792
0.9999193583144864
0.9999158177427776
0.9999123386470721
0.9999089183142968
0.9999055546655745
0.9999022461793061
0.9998989918013458
0.9998957908434633
0.9998926428716333
0.9998895475859982
0.9998865046945988
0.9998835137831699
0.9998805741833994
0.9998776848421103
0.9998748441937851
0.9998720500387563
0.999869299429192
0.9998665885647596
0.9998639126995532
0.9998612660614744
0.9998586417849029
0.9998560318570493
0.9998534270780017
0.9998508170340997
0.999848190083965
0.9998455333562958
0.9998428327584267
0.9998400729946881
0.9998372375937841
0.9998343089447778
0.9998312683417947
0.999828096038274
0.9998247713124292
0.9998212725465745
0.9998175773239965
0.9998136625481161
0.9998095045896642
0.9998050794684434
0.9998003630768266
0.9997953314523942
0.9997899611069013
0.9997842294180179
0.9997781150889221
0.9997715986787832
0.9997646632044258
0.999757294810076
0.999749483498021
0.9997412239085071
0.9997325161323003
0.9997233665343276
0.9997137885618836
0.9997038035063707
0.9996934411837568
0.9996827404963484
0.9996717498371726
0.9996605272981169
0.9996491406467463
0.9996376670497714
0.9996261925330046
0.9996148111432488
0.9996036237813009
0.9995927369167301
0.9995822615282259
0.9995723112974895
0.9995629988852398
0.9995544360388355
0.9995467439249551
0.9995400383531314
0.9995344139883777
0.9995300338393616
0.9995269863263018
0.9995253213970586
0
0
1.0003088651437613
1.0003072499710794
1.000304423174151
1.000300428674097
1.0002953641687358
1.0002893003061226
1.0002823159439345
1.0002745108085964
1.0002659720644531
1.000256787558565
1.0002470483451655
1.0002368443614007
1.0002262636131802
1.0002153918473664
1.000204311432086
1.0001931002679383
1.0001818309926143
1.0001705703444608
1.0001593786679333
1.0001483095974035
1.0001374099217752
1.0001267196118078
1.0001162719899472
1.0001060940210496
1.0000962067002268
1.0000866255134253
1.0000773609472609
1.0000684190264326
1.0000598018593443
1.0000515081753785
1.0000435338402802
1.000035872339254
1.0000285152204509
1.0000214524943984
1.0000146729875035
1.0000081646499495
1.00000191482011
0.9999959104488907
0.9999901382883426
0.9999845850493438
0.9999792375332847
0.999974082742489
0.9999691079736889
0.9999643008982526
0.9999596496321603
0.9999551427979406
0.999950769580043
0.9999465197743814
0.9999423838321759
0.9999383528976907
0.9999344188390691
0.999930574271215
0.9999268125695183
0.999923127873233
0.9999195150773973
0.9999159698123903
0.9999124884104758
0.9999090678590126
0.9999057057403632
0.9999024001589027
0.999899149655904
0.9998959531134279
0.9998928096486663
0.9998897185004809
0.9998866789100954
0.9998836899980863
0.999880750639917
0.9998778593423039
0.9998750141226763
0.9998722123938766
0.9998694508561033
0.9998667253978376
0.9998640310072311
0.9998613616950873
0.9998587104302168
0.9998560690875707
0.9998534284092029
0.9998507779777832
0.9998481062021201
0.9998454003139712
0.9998426463753529
0.999839829295618
0.9998369328577775
0.9998339397539169
0.9998308316300757
0.999827589141637
0.999824192021078
0.999820619160833
0.99981684871497
0.9998128582243133
0.999808624770509
0.9998041251651968
0.9997993361809051
0.9997942348303522
0.999788798700495
0.999783006346789
0.9997768377516926
0.9997702748493563
0.9997633021157649
0.9997559072202832
0.9997480817307391
0.999739821859911
0.9997311292367901
0.9997220116814163
0.9997124839576943
0.9997025684746728
0.9996922959035034
0.9996817056751695
0.9996708463238528
0.9996597756426501
0.9996485606200626
0.999637277128978
0.9996260093621442
0.9996148490443079
0.9996038944030888
0.9995932487719926
0.9995830190917296
0.9995733151304266
0.9995642481972254
0.999555926390341
0.9995484564924014
0.9995419564177043
0.9995365215422166
0.9995322363609811
0.9995292088491438
0.9995274901627864
0
0
1.0003067970194726
1.0003051007811732
1.0003022683580147
1.0002983527263045
1.0002934114589481
1.0002875017296218
1.0002807046505886
1.000273100247209
1.0002647692583628
1.0002557984434768
1.0002462742170595
1.0002362822332402
1.0002259074871531
1.0002152329844722
1.000204338543753
1.0001932999681615
1.0001821882821222
1.0001710690521963
1.000160001878095
1.0001490400605033
1.0001382304306585
1.000127613331671
1.0001172227380863
1.0001070864943178
1.0000972266501575
1.000087659871237
1.00007839790279
1.0000694480662402
1.000060813769996
1.0000524950182086
1.000044488903928
1.0000367900759193
1.0000293911712625
1.0000222832085623
1.0000154559390941
1.000008898155375
1.0000025979584504
0.9999965429865617
0.9999907206088646
0.9999851180884316
0.9999797227190333
0.9999745219400991
0.9999695034339616
0.9999646552089619
0.9999599656713881
0.9999554236884987
0.9999510186442009
0.9999467404882751
0.9999425797794237
0.9999385277219418
0.9999345761953979
0.9999307177764555
0.9999269457518227
0.9999232541212865
0.9999196375898669
0.9999160915482954
0.999912612041257
0.9999091957231284
0.9999058398012709
0.9999025419672748
0.9998993003168943
0.9998961132597375
0.9998929794200699
0.9998898975303485
0.9998868663193212
0.9998838843966702
0.9998809501362849
0.9998780615602777
0.9998752162258311
0.9998724111168641
0.999869642542349
0.9998669060429001
0.9998641963069956
0.9998615070978788
0.9998588311918856
0.9998561603285949
0.9998534851728922
0.9998507952887575
0.9998480791243625
0.9998453240079352
0.9998425161538086
0.9998396406781705
0.9998366816242487
0.999833621997057
0.9998304438083346
0.999827128132951
0.999823655178827
0.9998200043732262
0.9998161544691332
0.9998120836762601
0.999807769821913
0.9998031905475031
0.999798323546736
0.9997931468514408
0.9997876391704934
0.9997817802863004
0.9997755515117701
0.9997689362086093
0.999761920365129
0.999754493228564
0.9997466479832907
0.9997383824623892
0.9997296998758738
0.9997206095348227
0.9997111275467809
0.9997012774544785
0.9996910907873706
0.9996806074939204
0.9996698762221314
0.9996589544180289
0.9996479082180096
0.9996368121154731
0.9996257483793201
0.9996148062263542
0.9996040808305178
0.9995936721911947
0.9995836835722978
0.9995742197570524
0.9995653866618788
0.9995572904192876
0.9995500305563074
0.999543704591624
0.9995384091608214
0.9995342146279684
0.9995311883533583
0.9995293901048361
0
0
1.0003048851400183
1.0003031111907814
1.0003002761429471
1.0002964201625912
1.0002915792947058
1.000285811589389
1.0002791837143614
1.000271764944133
1.0002636331255046
1.0002548687738113
1.0002455529515653
1.000235767771734
1.0002255948103314
1.0002151138302808
1.0002044019620604
1.0001935328392613
1.0001825757643932
1.0001715950404695
1.0001606494619821
1.000149791952267
1.0001390693519365
1.0001285223545833
1.0001181855756751
1.0001080877372848
1.0000982519499433
1.0000886960718314
1.0000794331252987
1.0000704717514604
1.0000618166850583
1.0000534692336995
1.0000454277478972
1.000037688070851
1.0000302439595206
1.0000230874711051
1.0000162093114184
1.0000095991438003
1.0000032458590176
0.9999971378080476
0.9999912630007156
0.9999856092738695
0.999980164433109
0.9999749163721495
0.9999698531736966
0.9999649631952979
0.9999602351431065
0.999955658135864
0.9999512217607681
0.9999469161222634
0.9999427318842127
0.9999386603054297
0.9999346932681615
0.999930823298842
0.999927043580283
0.9999233479544232
0.9999197309148058
0.9999161875881134
0.9999127137042717
0.9999093055549235
0.9999059599403453
0.9999026741051976
0.999899445663816
0.9998962725160288
0.9998931527547732
0.9998900845669979
0.999887066129554
0.9998840955018814
0.9998811705174171
0.9998782886756518
0.9998754470367502
0.9998726421205463
0.9998698698115851
0.9998671252716954
0.9998644028613306
0.9998616960706516
0.9998589974610396
0.99985629861744
0.9998535901116589
0.9998508614765171
0.9998481011905744
0.9998452966730588
0.9998424342886344
0.999839499361774
0.999836476200741
0.9998333481315861
0.9998300975430534
0.9998267059439265
0.999823154035039
0.9998194217989311
0.9998154886108903
0.9998113333757952
0.9998069346957673
0.9998022710739761
0.9997973211600752
0.9997920640424589
0.9997864795919008
0.9997805488599932
0.9997742545342022
0.9997675814492268
0.9997605171517397
0.9997530525125448
0.9997451823767899
0.9997369062392449
0.9997282289279488
0.9997191612759336
0.9997097207574382
0.9996999320622374
0.9996898275797368
0.9996794477636908
0.9996688413488396
0.9996580653919201
0.9996471851132607
0.9996362735264657
0.9996254108537711
0.9996146837101257
0.9996041840493233
0.9995940080080139
0.9995842547281285
0.9995750246791983
0.9995664176299978
0.9995585326350674
0.9995514654100084
0.9995453019453369
0.999540123708056
0.9995360011524291
0.9995329796308439
0.9995311057494474
0
0
1.0003030780074862
1.0003012453118416
1.0002984108033706
1.0002946036584714
1.000289856186827
1.0002842186355663
1.0002777462353138
1.0002705039282658
1.0002625630135782
1.0002539974478837
1.0002448840066205
1.00023530065858
1.0002253250243283
1.0002150335746964
1.0002045006826759
1.0001937976688304
1.0001829920112437
1.0001721466880171
1.0001613196390535
1.0001505633697914
1.0001399247019407
1.0001294446624827
1.0001191584997413
1.0001090958131775
1.0000992807806335
1.0000897324651665
1.0000804651832007
1.000071488916057
1.0000628097478816
1.0000544303144627
1.0000463502493542
1.0000385666159448
1.000031074316455
1.0000238664712413
1.000016934764064
1.0000102697510953
1.0000038611332525
0.9999976979929686
0.9999917689976675
0.9999860625730395
0.9999805670496644
0.9999752707867292
0.9999701622764764
0.9999652302327426
0.9999604636664821
0.9999558519506359
0.9999513848761188
0.9999470527001064
0.9999428461872658
0.9999387566440999
0.9999347759462002
0.9999308965579199
0.9999271115438207
0.9999234145711762
0.999919799902852
0.9999162623799952
0.9999127973941431
0.9999094008485986
0.9999060691091696
0.9999027989446576
0.9998995874577535
0.9998964320072622
0.9998933301228204
0.9998902794134805
0.9998872774716987
0.9998843217743907
0.9998814095827859
0.9998785378428374
0.9998757030879086
0.9998729013453757
0.9998701280486543
0.9998673779559833
0.9998646450770909
0.9998619226086236
0.9998592028789857
0.9998564773029744
0.9998537363463842
0.9998509695005611
0.9998481652667649
0.999845311150149
0.9998423936632173
0.9998393983387773
0.9998363097526709
0.9998331115569761
0.9998297865248531
0.9998263166088073
0.999822683014797
0.9998188662952845
0.9998148464649782
0.9998106031435892
0.9998061157303243
0.999801363615063
0.9997963264310653
0.9997909843536529
0.9997853184484696
0.999779311071693
0.9997729463228545
0.9997662105487781
0.999759092894604
0.9997515858949291
0.9997436860949604
0.9997353946882606
0.9997267181543886
0.9997176688766433
0.9997082657173864
0.9996985345262833
0.9996885085553545
0.9996782287542525
0.9996677439202509
0.999657110680199
0.9996463932843151
0.9996356631953145
0.999624998471793
0.9996144829643125
0.9996042053105053
0.9995942577014925
0.9995847345931763
0.9995757315086095
0.999567343072108
0.9995596609277914
0.9995527733783551
0.9995467612171589
0.999541693779866
0.9995376330783068
0.9995346202073299
0.9995326903973253
0
0
1.000301348008505
1.0002994731938488
1.0002966440087993
1.0002928854326811
1.000288227224583
1.0002827110458135
1.0002763866607691
1.0002693134475584
1.0002615558231882
1.0002531827402978
1.000244266275784
1.0002348797936753
1.0002250970321178
1.0002149911146998
1.0002046334976447
1.000194093095777
1.0001834355098442
1.000172722340496
1.0001620106277984
1.0001513524280756
1.0001407945238912
1.0001303782636326
1.0001201395240922
1.000110108784622
1.000100311298696
1.000090767347278
1.0000814925575734
1.0000724982705027
1.000063791940752
1.0000553775543106
1.0000472560499443
1.000039425732922
1.0000318826714412
1.0000246210683776
1.0000176336031805
1.0000109117408014
1.0000044460063688
0.9999982262259136
0.9999922417346951
0.9999864815556124
0.99998093455078
0.9999755895496459
0.9999704354570674
0.9999654613445695
0.9999606565276513
0.9999560106315497
0.9999515136473381
0.9999471559796982
0.9999429284871897
0.9999388225153893
0.9999348299229012
0.9999309430999461
0.9999271549790782
0.9999234590374776
0.9999198492902832
0.9999163202745184
0.9999128670233075
0.9999094850302794
0.9999061702042833
0.9999029188147908
0.9998997274285877
0.9998965928386158
0.9998935119860162
0.9998904818766187
0.9998874994932642
0.9998845617054571
0.9998816651778899
0.9998788062794204
0.9998759809940203
0.9998731848351682
0.9998704127650146
0.9998676591195136
0.999864917540519
0.9998621809156433
0.9998594413264771
0.999856690005551
0.9998539173022533
0.9998511126577805
0.9998482645891165
0.999845360682037
0.9998423875932283
0.9998393310617991
0.9998361759307592
0.9998329061794409
0.9998295049683226
0.9998259546982887
0.9998222370869349
0.9998183332651496
0.9998142238977248
0.9998098893321941
0.9998053097803602
0.9998004655370005
0.9997953372399886
0.9997899061754628
0.999784154630701
0.9997780662959707
0.9997716267148395
0.9997648237802668
0.9997576482712819
0.9997500944223076
0.9997421605142441
0.9997338494735
0.9997251694622812
0.9997161344408942
0.9997067646806272
0.999697087204243
0.9996871361303492
0.9996769528979957
0.9996665863488231
0.9996560926468268
0.9996455350210471
0.9996349833205769
0.9996245133724375
0.9996142061510098
0.9996041467966545
0.9995944234718146
0.9995851259849394
0.999576344428603
0.9995681678518136
0.9995606819990804
0.9995539674344033
0.9995480985478246
0.9995431384694013
0.9995391400418538
0.9995361413694805
0.9995341730915931
0
0
1.0002996771178059
1.0002977737356156
1.0002949569986868
1.00029124985676
1.0002866785017364
1.0002812794900284
1.0002750982358486
1.0002681880289988
1.0002606079676404
1.0002524221334073
1.0002436976054558
1.0002345033549345
1.0002249092448745
1.0002149849147608
1.000204798845299
1.0001944175120867
1.000183904588932
1.000173320255119
1.0001627206214205
1.0001521572743481
1.0001416769432372
1.0001313212909961
1.0001211268227646
1.000111124903359
1.0001013418721636
1.000091799242129
1.0000825139681553
1.0000734987695554
1.0000647624913273
1.000056310489603
1.0000481450277539
1.000040265671201
1.000032669670799
1.0000253523267046
1.0000183073266873
1.0000115270548704
1.0000050028687315
0.9999987253438404
0.9999926844871387
0.9999868699206331
0.9999812710380773
0.9999758771376571
0.9999706775338468
0.999965661651524
0.9999608191051793
0.9999561397656695
0.9999516138165019
0.9999472318011418
0.9999429846623594
0.9999388637741905
0.9999348609667186
0.9999309685436018
0.9999271792920803
0.9999234864850843
0.9999198838750631
0.999916365679202
0.9999129265558131
0.9999095615718577
0.9999062661617382
0.9999030360777256
0.9998998673325789
0.999896756135137
0.9998936988198277
0.9998906917712046
0.999887731344744
0.999884813785225
0.9998819351440497
0.9998790911968917
0.9998762773630057
0.9998734886274812
0.9998707194676024
0.999867963784362
0.9998652148400005
0.999862465202294
0.9998597066961341
0.9998569303627822
0.9998541264270647
0.9998512842726763
0.9998483924257403
0.9998454385468101
0.9998424094316419
0.9998392910212867
0.9998360684223605
0.9998327259387753
0.999829247116671
0.999825614804837
0.9998218112334335
0.9998178181143468
0.9998136167669434
0.9998091882732837
0.9998045136669661
0.9997995741596278
0.999794351408689
0.9997888278291553
0.9997829869511409
0.9997768138232672
0.9997702954602261
0.9997634213306054
0.9997561838786334
0.9997485790708872
0.9997406069563537
0.9997322722256059
0.9997235847524737
0.9997145600995235
0.999705219967094
0.9996955925646575
0.9996857128830542
0.9996756228468989
0.9996653713280953
0.9996550140036445
0.9996446130448455
0.999634236632539
0.9996239582982351
0.9996138560882051
0.9996040115652887
0.9995945087042407
0.9995854326473241
0.9995768682394374
0.999568898641111
0.9995616038147567
0.9995550581208494
0.9995493290392325
0.9995444746121427
0.9995405419781687
0.9995375652931989
0.9995355728139961
0
0
1.0002980532562964
1.0002961330515243
1.0002933362283428
1.000289683757853
1.0002851991188804
1.0002799154610966
1.000273873744316
1.0002671222441692
1.0002597153765218