# vtk DataFile Version 2.0
2D-ADE data file 
ASCII
DATASET RECTILINEAR_GRID
DIMENSIONS 128 128 1 
X_COORDINATES 128 int
0 1 2 3 4 5 6 7 8 9 10 11 12 13 14 15 16 17 18 19 20 21 22 23 24 25 26 27 28 29 30 31 32 33 34 35 36 37 38 39 40 41 42 43 44 45 46 47 48 49 50 51 52 53 54 55 56 57 58 59 60 61 62 63 64 65 66 67 68 69 70 71 72 73 74 75 76 77 78 79 80 81 82 83 84 85 86 87 88 89 90 91 92 93 94 95 96 97 98 99 100 101 102 103 104 105 106 107 108 109 110 111 112 113 114 115 116 117 118 119 120 121 122 123 124 125 126 127 
Y_COORDINATES 128 int
0 1 2 3 4 5 6 7 8 9 10 11 12 13 14 15 16 17 18 19 20 21 22 23 24 25 26 27 28 29 30 31 32 33 34 35 36 37 38 39 40 41 42 43 44 45 46 47 48 49 50 51 52 53 54 55 56 57 58 59 60 61 62 63 64 65 66 67 68 69 70 71 72 73 74 75 76 77 78 79 80 81 82 83 84 85 86 87 88 89 90 91 92 93 94 95 96 97 98 99 100 101 102 103 104 105 106 107 108 109 110 111 112 113 114 115 116 117 118 119 120 121 122 123 124 125 126 127 
Z_COORDINATES 1 int
0
POINT_DATA 16384
SCALARS density double
LOOKUP_TABLE default
0
0
0
0
0
0
0
0
0
0
0
0
0
0
0
0
0
0
0
0
0
0
0
0
0
0
0
0
0
0
0
0
0
0
0
0
0
0
0
0
0
0
0
0
0
0
0
0
0
0
0
0
0
0
0
0
0
0
0
0
0
0
0
0
0
0
0
0
0
0
0
0
0
0
0
0
0
0
0
0
0
0
0
0
0
0
0
0
0
0
0
0
0
0
0
0
0
0
0
0
0
0
0
0
0
0
0
0
0
0
0
0
0
0
0
0
0
0
0
0
0
0
0
0
0
0
0
0
0
0.9996887290656531
0.9996888030640696
0.9996887152678314
0.999688404628441
0.9996878634859729
0.9996871309731465
0.9996862454722134
0.9996852403719706
0.9996841457085879
0.9996829887828165
0.999681793634768
0.9996805811977808
0.9996793696380362
0.9996781746773984
0.9996770098597572
0.9996758868018784
0.9996748154246009
0.9996738041611554
0.9996728601430017
0.9996719893660576
0.9996711968392272
0.9996704867168611
0.9996698624166133
0.9996693267240572
0.9996688818852189
0.9996685296880733
0.999668271533901
0.9996681084993375
0.9996680413898383
0.9996680707852464
0.9996681970780638
0.9996684205050147
0.9996687411724259
0.9996691590759348
0.9996696741149954
0.9996702861026471
0.9996709947709681
0.9996717997726384
0.9996727006790106
0.9996736969750721
0.9996747880516716
0.9996759731953759
0.9996772515762982
0.9996786222342433
0.9996800840635007
0.9996816357965963
0.9996832759873272
0.9996850029933755
0.9996868149587979
0.9996887097966838
0.9996906851722552
0.99969273848669
0.9996948668619264
0.9996970671267118
0.9996993358041386
0.9997016691009097
0.9997040628985656
0.9997065127468797
0.9997090138596388
0.9997115611129906
0.9997141490465385
0.9997167718673355
0.9997194234569222
0.9997220973815177
0.9997247869054648
0.9997274850079877
0.9997301844033109
0.9997328775641438
0.9997355567485144
0.9997382140298945
0.9997408413305311
0.9997434304578575
0.9997459731438291
0.9997484610869806
0.9997508859969786
0.9997532396413955
0.9997555138944115
0.9997577007870934
0.9997597925589082
0.9997617817100585
0.999763661054239
0.999765423771375
0.9997670634599011
0.9997685741881195
0.999769950544187
0.9997711876842763
0.9997722813784721
0.999773228053978
0.9997740248352409
0.999774669580626
0.9997751609153247
0.9997754982602115
0.9997756818564407
0.9997757127856067
0.999775592985388
0.9997753252606437
0.9997749132900128
0.9997743616281626
0.9997736757038806
0.9997728618143286
0.9997719271158239
0.9997708796116259
0.9997697281372645
0.9997684823440288
0.9997671526813068
0.9997657503785018
0.9997642874273012
0.9997627765650638
0.999761231260042
0.9997596656990625
0.9997580947779583
0.9997565340946624
0.9997549999441986
0.9997535093142857
0.9997520798749213
0.9997507299522095
0.9997494784710069
0.9997483448873296
0.9997473489855264
0.9997465103575915
0.9997458471113061
0.9997453758677045
0.9997451102004705
0.9997450516958081
0.999745134927577
0.9997452695151147
0
0
0.9996886556723301
0.9996887295750541
0.9996886296642309
0.9996883302110218
0.9996878482328505
0.9996872005746333
0.9996864136559511
0.9996855150083124
0.9996845311696858
0.9996834860870151
0.9996824013665947
0.9996812962808302
0.999680187858134
0.999679091018676
0.9996780187684854
0.999676982389718
0.9996759916213553
0.9996750548281955
0.9996741791580745
0.9996733706860267
0.9996726345454242
0.9996719750466967
0.9996713957843074
0.9996708997327286
0.999670489332092
0.999670166564232
0.99966993301975
0.9996697899567354
0.9996697383517035
0.9996697789433153
0.9996699122693724
0.9996701386975998
0.9996704584506593
0.9996708716258622
0.9996713782099859
0.9996719780896236
0.9996726710574471
0.9996734568147803
0.9996743349708417
0.9996753050390205
0.9996763664305311
0.999677518445793
0.999678760263848
0.9996800909301559
0.9996815093430642
0.9996830142392653
0.9996846041785348
0.9996862775280373
0.9996880324464902
0.9996898668684526
0.9996917784890115
0.9996937647491252
0.9996958228218802
0.9996979495999031
0.999700141684171
0.9997023953744408
0.9997047066615274
0.9997070712216239
0.999709484412876
0.9997119412743704
0.9997144365277316
0.9997169645814442
0.9997195195380598
0.9997220952043789
0.9997246851047066
0.9997272824972343
0.9997298803935991
0.9997324715816063
0.999735048651121
0.9997376040230435
0.9997401299813163
0.9997426187078093
0.9997450623199583
0.9997474529109451
0.9997497825922105
0.9997520435380362
0.9997542280319127
0.9997563285143638
0.9997583376318963
0.9997602482866832
0.999762053686606
0.9997637473952286
0.9997653233812984
0.9997667760673219
0.9997681003768069
0.9997692917797232
0.999770346335788
0.9997712607351565
0.9997720323361625
0.9997726591997526
0.9997731401203275
0.9997734746527076
0.9997736631350381
0.9997737067074619
0.9997736073264794
0.9997733677749606
0.9997729916678603
0.9997724834537375
0.9997718484122774
0.9997710926480544
0.9997702230808868
0.9997692474331442
0.9997681742144862
0.9997670127045104
0.9997657729338547
0.9997644656642796
0.9997631023682751
0.9997616952086125
0.9997602570181777
0.9997588012801305
0.9997573421081004
0.999755894225393
0.9997544729409734
0.9997530941179678
0.9997517741300158
0.9997505297955611
0.9997493782681104
0.9997483368213339
0.9997474225284892
0.9997466518101842
0.9997460397712057
0.9997455978373011
0.9997453301694297
0.9997452289179841
0.9997452685398232
0.9997454026511842
0
0
0.999688743960779
0.9996888299787547
0.9996887298258802
0.9996884438037299
0.9996879987346863
0.9996874068563695
0.9996866907335793
0.9996858732276039
0.9996849767550209
0.9996840221735275
0.9996830288506692
0.9996820143242111
0.9996809942923355
0.9996799826888147
0.9996789918064142
0.9996780324210677
0.999677113925617
0.999676244463986
0.9996754310606207
0.9996746797421726
0.9996739956507382
0.9996733831483009
0.9996728459122046
0.999672387021844
0.9996720090367912
0.999671714066787
0.9996715038339282
0.9996713797275222
0.9996713428519729
0.9996713940681651
0.9996715340287086
0.9996717632074952
0.9996720819239129
0.9996724903621493
0.9996729885859155
0.9996735765489941
0.9996742541019359
0.9996750209952788
0.9996758768796106
0.9996768213028164
0.9996778537048291
0.999678973410201
0.9996801796188012
0.9996814713949472
0.9996828476552557
0.9996843071555044
0.9996858484767911
0.9996874700112536
0.9996891699476306
0.9996909462569185
0.9996927966783822
0.9996947187061719
0.9996967095767849
0.999698766257609
0.9997008854367785
0.9997030635145548
0.9997052965964502
0.9997075804882825
0.9997099106933598
0.9997122824119585
0.9997146905432642
0.9997171296899022
0.9997195941652072
0.999722078003309
0.9997245749721422
0.999727078589419
0.9997295821416183
0.9997320787059782
0.9997345611754908
0.999737022286826
0.9997394546511232
0.9997418507875109
0.9997442031592325
0.9997465042121688
0.9997487464155672
0.9997509223047113
0.9997530245252731
0.9997550458790185
0.9997569793705614
0.999758818254777
0.9997605560845336
0.9997621867583145
0.9997637045673556
0.9997651042418675
0.9997663809959415
0.99976753057072
0.9997685492754547
0.9997694340260453
0.9997701823807309
0.9997707925725788
0.9997712635385113
0.9997715949445853
0.9997717872073592
0.9997718415111617
0.9997717598212038
0.9997715448924663
0.9997712002744203
0.9997707303116505
0.9997701401405537
0.99976943568231
0.9997686236324261
0.9997677114471468
0.9997667073271236
0.999765620198721
0.9997644596933704
0.9997632361253361
0.9997619604682348
0.9997606443304888
0.9997592999297504
0.9997579400659202
0.9997565780919947
0.9997552278812567
0.9997539037884466
0.9997526205993816
0.9997513934612772
0.9997502377836164
0.9997491691076396
0.9997482028856152
0.9997473541115411
0.9997466366954341
0.9997460630954235
0.9997456428438349
0.99974537998553
0.9997452675885962
0.9997453077242235
0.9997454854616808
0
0
0.9996890556403424
0.9996891306746295
0.9996890161157619
0.9996887290303434
0.9996882976970832
0.9996877378221518
0.9996870689933989
0.9996863096846703
0.999685479025878
0.9996845953485513
0.9996836757939394
0.9996827360613741
0.999681790425796
0.9996808517247666
0.9996799314018202
0.9996790395846116
0.999678185183062
0.9996773759908357
0.9996766187873901
0.9996759194380164
0.9996752829896506
0.9996747137610232
0.9996742154263646
0.999673791092475
0.9996734433689528
0.9996731744317312
0.9996729860799718
0.9996728797866381
0.9996728567429165
0.9996729178968597
0.9996730639864878
0.9996732955677293
0.9996736130374605
0.9996740166520293
0.9996745065415269
0.9996750827201802
0.99967574509314
0.999676493460012
0.9996773275154052
0.9996782468468378
0.9996792509302596
0.9996803391235191
0.9996815106580325
0.9996827646289629
0.9996840999841596
0.9996855155121522
0.9996870098294467
0.9996885813673964
0.9996902283588971
0.9996919488251559
0.9996937405627803
0.9996956011314214
0.9996975278422129
0.9996995177472168
0.9997015676301116
0.9997036739983131
0.9997058330767541
0.9997080408034842
0.9997102928273032
0.9997125845075645
0.9997149109163284
0.9997172668429818
0.999719646801468
0.9997220450401985
0.9997244555547641
0.9997268721034668
0.9997292882257396
0.9997316972634296
0.9997340923849563
0.9997364666122626
0.999738812850515
0.9997411239204008
0.9997433925929218
0.9997456116264716
0.9997477738060212
0.9997498719841483
0.9997518991236709
0.9997538483415588
0.9997557129538337
0.9997574865210833
0.9997591628942534
0.9997607362603145
0.9997622011874321
0.999763552669226
0.9997647861677372
0.999765897654687
0.9997668836506735
0.9997677412619022
0.9997684682141394
0.9997690628835398
0.9997695243240948
0.9997698522914249
0.9997700472627515
0.9997701104528577
0.9997700438259822
0.9997698501035595
0.9997695327678626
0.9997690960615788
0.9997685449834839
0.9997678852803562
0.9997671234353973
0.9997662666533916
0.9997653228429286
0.9997643005959651
0.9997632091650562
0.9997620584384743
0.9997608589134142
0.9997596216672774
0.9997583583268831
0.9997570810350618
0.9997558024136227
0.9997545355206479
0.9997532937995552
0.9997520910164271
0.9997509411802362
0.999749858428041
0.9997488568642677
0.99974795034723
0.9997471522674527
0.9997464750362632
0.9997459294430315
0.9997455235821242
0.9997452643114199
0.9997451534449822
0.9997452070505062
0.9997454290664853
0
0
0.9996896000444803
0.9996896157076458
0.9996894624925242
0.9996891585507792
0.9996887250989459
0.99968817891773
0.9996875373285518
0.9996868166249022
0.9996860333743836
0.9996852034171796
0.9996843417706127
0.9996834624213573
0.999682578227371
0.9996817008604029
0.999680840827134
0.9996800075143776
0.9996792092508205
0.9996784533794968
0.9996777463369363
0.9996770937338281
0.999676500434286
0.9996759706322113
0.9996755079235634
0.999675115373919
0.99967479558075
0.9996745507303568
0.9996743826492718
0.9996742928503015
0.9996742825732184
0.9996743528203795
0.999674504387384
0.9996747378890982
0.9996750537812132
0.9996754523776836
0.9996759338642406
0.9996764983083285
0.9996771456656767
0.999677875783848
0.9996786884029804
0.9996795831540538
0.9996805595549064
0.9996816170043107
0.9996827547743394
0.9996839720013163
0.9996852676755815
0.9996866406303498
0.9996880895298916
0.9996896128573015
0.9996912089020784
0.9996928757477692
0.999694611259898
0.9996964130744144
0.999698278586882
0.9997002049426197
0.9997021890280131
0.9997042274631885
0.9997063165962569
0.9997084524992962
0.9997106309662673
0.999712847513006
0.9997150973794584
0.9997173755342793
0.999719676681929
0.9997219952723486
0.9997243255133175
0.9997266613855238
0.9997289966604128
0.9997313249207906
0.9997336395841987
0.999735933928978
0.9997382011229832
0.9997404342548039
0.9997426263673936
0.9997447704938994
0.9997468596955319
0.9997488871012046
0.9997508459487268
0.9997527296272208
0.999754531720489
0.9997562460509596
0.9997578667238977
0.9997593881714649
0.9997608051962947
0.9997621130141469
0.9997633072952986
0.9997643842042393
0.9997653404373421
0.999766173258098
0.9997668805296225
0.999767460744079
0.9997679130487733
0.9997682372686401
0.9997684339249593
0.9997685042501036
0.9997684501982568
0.9997682744520011
0.9997679804248218
0.9997675722595304
0.9997670548227586
0.9997664336956187
0.9997657151607745
0.9997649061860887
0.9997640144051392
0.999763048094788
0.999762016150081
0.9997609280565858
0.9997597938602976
0.9997586241349922
0.9997574299467613
0.9997562228150689
0.9997550146694316
0.9997538178000717
0.9997526447998105
0.9997515084926921
0.9997504218470589
0.9997493978675911
0.999748449456515
0.999747589204246
0.9997468291756753
0.9997461806345953
0.9997456538723238
0.9997452573858164
0.9997450000698471
0.999744889392416
0.9997449416829355
0.9997451688427141
0
0
0.9996903400958637
0.9996902697435208
0.9996900579431839
0.9996897177635189
0.9996892652321545
0.9996887158154909
0.9996880845044054
0.9996873857191989
0.999686633674839
0.9996858420782418
0.9996850240762858
0.9996841920137565
0.9996833573312397
0.9996825305188262
0.9996817211077785
0.9996809376826095
0.9996801879178029
0.9996794786292751
0.9996788158335264
0.999678204810605
0.9996776501684267
0.9996771559065305
0.9996767254775766
0.9996763618457452
0.9996760675412657
0.9996758447108058
0.9996756951633575
0.9996756204116531
0.9996756217089752
0.9996757000815701
0.9996758563566533
0.9996760911862923
0.999676405067241
0.9996767983570461
0.9996772712865444
0.9996778239690832
0.9996784564066177
0.9996791684930072
0.9996799600146927
0.9996808306490628
0.9996817799606991
0.9996828073958078
0.9996839122750216
0.9996850937848777
0.9996863509681515
0.9996876827133404
0.9996890877434853
0.999690564604599
0.9996921116539019
0.9996937270481123
0.9996954087319931
0.999697154427393
0.9996989616229731
0.999700827564846
0.999702749248316
0.9997047234109242
0.9997067465269844
0.9997088148037885
0.9997109241796546
0.9997130703239736
0.9997152486394097
0.999717454266374
0.9997196820899084
0.9997219267490547
0.9997241826488197
0.9997264439747628
0.9997287047102761
0.9997309586565376
0.9997331994551533
0.9997354206134131
0.9997376155321318
0.9997397775359194
0.9997418999058092
0.9997439759140283
0.9997459988607579
0.9997479621126238
0.9997498591427043
0.9997516835717307
0.9997534292102206
0.999755090101167
0.9997566605629893
0.9997581352323236
0.9997595091063307
0.9997607775840924
0.9997619365067509
0.9997629821959704
0.9997639114903856
0.9997647217796386
0.9997654110357059
0.9997659778411568
0.9997664214141081
0.9997667416295803
0.9997669390370958
0.9997670148743099
0.9997669710766071
0.9997668102825493
0.9997665358352084
0.9997661517793681
0.9997656628547209
0.999765074485142
0.9997643927642389
0.9997636244373148
0.9997627768800024
0.9997618580736972
0.9997608765780299
0.9997598415004253
0.9997587624628397
0.9997576495655122
0.9997565133475153
0.9997553647434417
0.9997542150353212
0.9997530757984244
0.9997519588396651
0.9997508761254265
0.9997498396944237
0.9997488615514598
0.9997479535528978
0.9997471272649252
0.9997463937994716
0.999745763591017
0.9997452465290387
0.9997448517511742
0.999744589076174
0.9997444685932334
0.9997445041541444
0.9997447072290886
0
0
0.9996912395864624
0.9996910680042839
0.9996907811934634
0.9996903881583024
0.9996899017808097
0.9996893345444741
0.9996886990180698
0.9996880076817081
0.9996872727440064
0.9996865060660605
0.9996857190460434
0.9996849224669649
0.9996841264172813
0.9996833402259988
0.9996825724314524
0.9996818307800398
0.9996811222462687
0.9996804530654964
0.9996798287760563
0.999679254267686
0.9996787338329761
0.999678271219746
0.9996778696826285
0.9996775320329568
0.999677260685948
0.9996770577048049
0.9996769248412001
0.9996768635720977
0.9996768751326571
0.9996769605453508
0.9996771206451968
0.999677356101347
0.9996776674350261
0.9996780550341109
0.999678519164408
0.9996790599779463
0.9996796775183722
0.9996803717237773
0.9996811424270717
0.9996819893542235
0.9996829121204971
0.9996839102250074
0.9996849830437297
0.9996861298212651
0.9996873496615228
0.9996886415175958
0.999690004181
0.9996914362705441
0.9996929362210011
0.9996945022718342
0.9996961324561563
0.9996978245901549
0.9996995762631699
0.9997013848286354
0.9997032473960742
0.9997051608243377
0.9997071217162766
0.9997091264150136
0.9997111710019917
0.9997132512969482
0.999715362859969
0.9997175009957465
0.9997196607601702
0.9997218369693361
0.999724024211077
0.999726216859053
0.9997284090894668
0.999730594900394
0.9997327681337439
0.9997349224997863
0.9997370516042111
0.9997391489775831
0.9997412081071128
0.9997432224705403
0.9997451855719849
0.9997470909795051
0.9997489323641587
0.9997507035402469
0.9997523985064825
0.9997540114877168
0.9997555369769205
0.9997569697770171
0.9997583050422294
0.9997595383185294
0.9997606655828313
0.9997616832805165
0.9997625883609529
0.9997633783105966
0.9997640511833952
0.999764605628108
0.9997650409123217
0.9997653569428435
0.9997655542823225
0.9997656341618619
0.9997655984895653
0.9997654498548687
0.9997651915287038
0.9997648274594341
0.9997643622646972
0.9997638012191941
0.9997631502386196
0.9997624158598397
0.9997616052175469
0.9997607260175004
0.9997597865065704
0.9997587954396159
0.9997577620432931
0.9997566959766292
0.9997556072881998
0.9997545063694475
0.9997534039035668
0.9997523108087377
0.9997512381745548
0.9997501971907626
0.9997491990679948
0.9997482549452295
0.9997473757871098
0.9997465722774375
0.9997458547447065
0.9997452330526285
0.9997447167290494
0.9997443150533073
0.9997440376595793
0.9997438945837048
0.9997438983189508
0.9997440579266957
0
0
0.9996922672445813
0.9996919845383673
0.999691610577959
0.999691152210019
0.9996906192566949
0.9996900214092351
0.9996893690785716
0.9996886727269632
0.9996879427082429
0.9996871891651744
0.9996864218901309
0.9996856502235604
0.9996848829659942
0.9996841283103531
0.9996833938077142
0.9996826863554555
0.9996820122021027
0.9996813769663802
0.9996807856667775
0.9996802427579375
0.9996797521709195
0.999679317355641
0.9996789413236843
0.9996786266904577
0.9996783757155739
0.9996781903410403
0.9996780722265853
0.9996780227820358
0.9996780431963701
0.9996781344635485
0.9996782974049205
0.999678532688439
0.9996788408445816
0.999679222279272
0.9996796772837776
0.9996802060419016
0.9996808086344995
0.999681485041639
0.9996822351424782
0.9996830587131705
0.999683955422896
0.9996849248283245
0.9996859663666247
0.9996870793473104
0.9996882629430563
0.9996895161797611
0.9996908379259959
0.9996922268821109
0.9996936815691417
0.9996952003177731
0.9996967812575143
0.9996984223063269
0.9997001211608604
0.9997018752875311
0.9997036819145944
0.9997055380254242
0.9997074403531633
0.9997093853769292
0.9997113693197267
0.999713388148239
0.9997154375746302
0.9997175130605035
0.9997196098231256
0.9997217228440246
0.9997238468800512
0.9997259764769552
0.9997281059855414
0.9997302295804077
0.9997323412812676
0.9997344349768236
0.9997365044511346
0.9997385434123758
0.9997405455238866
0.9997425044373319
0.9997444138278212
0.9997462674307396
0.9997480590800797
0.999749782747967
0.9997514325851176
0.9997530029618618
0.9997544885094353
0.9997558841611295
0.9997571851929731
0.9997583872635084
0.9997594864523311
0.9997604792969512
0.9997613628276467
0.9997621345998896
0.9997627927240552
0.9997633358920257
0.9997637634004524
0.9997640751703597
0.9997642717629209
0.999764354391166
0.9997643249275533
0.9997641859072401
0.9997639405270893
0.9997635926403398
0.9997631467470658
0.9997626079804376
0.999761982088986
0.999761275414941
0.999760494868884
0.9997596479008014
0.9997587424677632
0.9997577869982665
0.9997567903533707
0.99975576178454
0.9997547108881107
0.9997536475560411
0.9997525819226881
0.9997515243071183
0.9997504851503023
0.9997494749460961
0.9997485041672834
0.9997475831880599
0.9997467222048544
0.9997459311535368
0.9997452196651199
0.9997445970430182
0.9997440723418062
0.9997436544951435
0.9997433526216025
0.9997431756461242
0.9997431344557677
0.9997432366237495
0
0
0.9996933948721045
0.9996929941449052
0.9996925246450817
0.9996919914945701
0.9996914016182264
0.9996907626020115
0.9996900828082058
0.9996893707750719
0.9996886351452047
0.9996878844664386
0.9996871270574322
0.9996863709095851
0.9996856235995925
0.9996848922287154
0.9996841833836195
0.9996835031153767
0.9996828569355217
0.9996822498258809
0.9996816862579396
0.9996811702193102
0.9996807052448543
0.9996802944507542
0.9996799405696547
0.9996796459859344
0.9996794127699385
0.9996792427107267
0.9996791373465856
0.9996790979931848
0.9996791257689238
0.9996792216175443
0.9996793863277361
0.999679620549948
0.9996799248102325
0.9996802995214191
0.9996807449915206
0.9996812614296948
0.9996818489497337
0.9996825075714041
0.9996832372196601
0.9996840377220414
0.9996849088043155
0.9996858500846716
0.9996868610665345
0.9996879411303097
0.9996890895241379
0.9996903053539581
0.9996915875729757
0.999692934970817
0.9996943461624834
0.9996958195773723
0.9996973534484871
0.9996989458020921
0.9997005944479388
0.9997022969703142
0.9997040507200341
0.9997058528076155
0.9997077000977654
0.9997095892053851
0.9997115164932326
0.9997134780714187
0.999715469798868
0.9997174872868906
0.9997195259049798
0.9997215807889466
0.9997236468514789
0.9997257187951958
0.9997277911282454
0.99972985818247
0.9997319141341466
0.9997339530272615
0.9997359687992822
0.9997379553093182
0.9997399063685821
0.9997418157729717
0.999743677337626
0.9997454849332122
0.9997472325237324
0.9997489142055473
0.9997505242473521
0.9997520571307436
0.999753507591071
0.9997548706581654
0.9997561416966109
0.9997573164451227
0.9997583910546874
0.999759362125018
0.9997602267389929
0.9997609824946435
0.9997616275343904
0.999762160571137
0.9997625809109675
0.9997628884721222
0.999763083800073
0.999763168078443
0.9997631431356919
0.999763011447397
0.9997627761341458
0.9997624409549665
0.9997620102964077
0.999761489157275
0.9997608831292166
0.9997601983732306
0.999759441592329
0.9997586200004577
0.9997577412879184
0.9997568135833511
0.9997558454124712
0.9997548456535325
0.9997538234896178
0.99975278835759
0.9997517498936165
0.9997507178750801
0.9997497021591709
0.9997487126180954
0.9997477590712659
0.9997468512163631
0.9997459985662034
0.9997452103914234
0.9997444956859374
0.9997438631643679
0.9997433213024752
0.9997428783617179
0.9997425426918944
0.9997423221531029
0.9997422255742029
0.9997422593490173
0
0
0.9996945965728061
0.9996940738460538
0.9996935031650612
0.9996928880473241
0.9996922331957614
0.9996915444414171
0.999690828259474
0.9996900915031567
0.9996893412394485
0.999688584538735
0.9996878283552562
0.999687079420519
0.9996863441600025
0.9996856286335296
0.9996849384927303
0.9996842789565102
0.9996836548015448
0.9996830703647399
0.9996825295548745
0.9996820358715701
0.9996815924290463
0.9996812019831641
0.9996808669600165
0.9996805894852258
0.9996803714127177
0.9996802143525618
0.9996801196970575
0.9996800886449659
0.9996801222233433
0.9996802213070733
0.9996803866357405
0.9996806188280598
0.9996809183936349
0.999681285742336
0.999681721191142
0.9996822249687799
0.9996827972180768
0.9996834379963542
0.999684147273836
0.9996849249304008
0.9996857707506751
0.9996866844177984
0.9996876655058817
0.9996887134714788
0.9996898276441119
0.9996910072161624
0.999692251232186
0.999693558577944
0.9996949279692361
0.9996963579408075
0.9996978468354277
0.9996993927934139
0.9997009937426876
0.9997026473896399
0.9997043512109013
0.9997061024462683
0.9997078980928964
0.9997097349009881
0.9997116093710862
0.9997135177531805
0.9997154560477335
0.9997174200087944
0.9997194051493068
0.9997214067487353
0.9997234198630924
0.9997254393374534
0.9997274598210033
0.9997294757846525
0.9997314815412314
0.9997334712682295
0.9997354390330448
0.9997373788206494
0.9997392845635741
0.9997411501740485
0.9997429695781459
0.9997447367516931
0.9997464457577382
0.9997480907852703
0.999749666188927
0.9997511665293255
0.9997525866137053
0.999753921536475
0.9997551667193164
0.9997563179504072
0.9997573714224043
0.9997583237687365
0.9997591720978596
0.9997599140250283
0.9997605477012766
0.9997610718391992
0.9997614857352652
0.9997617892883333
0.99976198301417
0.9997620680557074
0.9997620461889499
0.9997619198243449
0.9997616920036341
0.9997613663920916
0.9997609472662636
0.9997604394972129
0.9997598485294565
0.9997591803556776
0.9997584414874605
0.9997576389221603
0.9997567801061891
0.9997558728948196
0.9997549255087761
0.9997539464876609
0.9997529446404367
0.9997519289930004
0.9997509087330664
0.9997498931523597
0.999748891586527
0.9997479133535301
0.9997469676918718
0.99974606369951
0.999745210278246
0.9997444160881136
0.9997436895162843
0.9997430386629835
0.9997424713690897
0.9997419951560851
0.9997416174166815
0.9997413450378172
0.9997411849988788
0.9997411424665276
0
0
0.9996958491726633
0.9996952025390777
0.9996945269739206
0.9996938246863728
0.9996930987365589
0.9996923533882622
0.9996915935108629
0.9996908244802076
0.9996900519234206
0.9996892815641915
0.9996885190978612
0.9996877700839212
0.9996870398669847
0.9996863335172658
0.9996856557879326
0.9996850110887214
0.9996844034723212
0.9996838366319334
0.9996833139075573
0.9996828382991844
0.9996824124846504
0.9996820388409747
0.9996817194675004
0.9996814562100831
0.9996812506851005
0.9996811043029323
0.999681018290055
0.9996809937096727
0.9996810314802864
0.9996811323923112
0.999681297122334
0.9996815262452265
0.9996818202438463
0.9996821795166025
0.9996826043827032
0.9996830950854119
0.9996836517931793
0.9996842745989997
0.9996849635179054
0.9996857184829488
0.9996865393396211
0.9996874258390515
0.9996883776299638
0.9996893942497308
0.9996904751145184
0.9996916195088507
0.9996928265746153
0.9996940952998191
0.9996954245071422
0.9996968128425783
0.9996982587642328
0.9996997605315596
0.9997013161951076
0.9997029235870614
0.9997045803126526
0.9997062837427108
0.999708031007441
0.9997098189916781
0.9997116443317136
0.9997135034139137
0.9997153923752283
0.9997173071057797
0.9997192432536179
0.9997211962317972
0.9997231612278412
0.9997251332157038
0.9997271069702665
0.9997290770844267
0.9997310379887735
0.9997329839738491
0.9997349092149465
0.9997368077993619
0.9997386737560112
0.9997405010872483
0.9997422838027337
0.9997440159551239
0.9997456916773659
0.9997473052212943
0.9997488509972634
0.9997503236144464
0.9997517179214821
0.9997530290470593
0.9997542524400771
0.9997553839089395
0.9997564196596112
0.9997573563319689
0.9997581910340968
0.9997589213740565
0.9997595454888173
0.9997600620699127
0.9997604703855639
0.9997607702988902
0.9997609622820272
0.9997610474258548
0.999761027445243
0.9997609046796175
0.9997606820888539
0.9997603632443989
0.9997599523157393
0.999759454052208
0.9997588737603419
0.9997582172768599
0.9997574909375537
0.9997567015422092
0.9997558563158928
0.9997549628667481
0.9997540291406464
0.9997530633728401
0.9997520740369618
0.9997510697915069
0.9997500594242336
0.9997490517947815
0.9997480557760843
0.9997470801951898
0.9997461337751151
0.9997452250792139
0.9997443624601757
0.9997435540167293
0.999742807561531
0.9997421305889007
0.9997415302791635
0.9997410134372725
0.9997405865172156
0.9997402554300721
0.9997400257112075
0.9997399014044364
0
0
0.999697132001261
0.9996963609242587
0.9996955782539588
0.9996947852153724
0.9996939835724179
0.9996931762573465
0.9996923667989918
0.9996915592565087
0.9996907579706082
0.9996899674464531
0.9996891922210013
0.9996884367668902
0.999687705416705
0.9996870023051374
0.9996863313274076
0.999685696111987
0.9996851000048903
0.9996845460642806
0.9996840370629029
0.9996835754969585
0.9996831635994533
0.9996828033570117
0.9996824965285314
0.9996822446650753
0.999682049129793
0.9996819111175929
0.9996818316736815
0.9996818117109396
0.9996818520254918
0.9996819533106138
0.9996821161685139
0.9996823411202311
0.9996826286133268
0.9996829790276687
0.9996833926790725
0.9996838698211432
0.9996844106451392
0.9996850152782181
0.9996856837799348
0.9996864161373596
0.9996872122587109
0.9996880719658784
0.9996889949857554
0.9996899809407452
0.999691029338393
0.9996921395604909
0.999693310851633
0.9996945423075605
0.9996958328632893
0.9996971812813512
0.99969858614017
0.9997000458228739
0.999701558506603
0.9997031221525917
0.9997047344970986
0.9997063930434618
0.9997080950553494
0.9997098375514761
0.999711617301862
0.9997134308258787
0.9997152743921613
0.9997171440206034
0.9997190354865074
0.9997209443270675
0.9997228658502404
0.999724795146141
0.9997267271009845
0.9997286564136594
0.9997305776149198
0.9997324850892108
0.9997343730990699
0.9997362358120522
0.9997380673300622
0.9997398617209634
0.9997416130522913
0.9997433154268629
0.9997449630200453
0.9997465501183975
0.9997480711594019
0.9997495207719177
0.9997508938170283
0.9997521854288643
0.9997533910550304
0.9997545064961819
0.999755527944365
0.9997564520196458
0.999757275804649
0.9997579968765391
0.9997586133360925
0.9997591238334329
0.9997595275901301
0.9997598244172896
0.9997600147294196
0.9997600995537773
0.9997600805350856
0.9997599599354113
0.9997597406292057
0.9997594260934121
0.9997590203927463
0.9997585281601555
0.9997579545726738
0.9997573053227656
0.9997565865854625
0.9997558049814544
0.9997549675365118
0.9997540816374322
0.9997531549849334
0.9997521955437202
0.999751211490181
0.9997502111579915
0.9997492029821357
0.9997481954417641
0.9997471970026853
0.9997462160601134
0.9997452608828031
0.9997443395599347
0.9997434599521032
0.9997426296466149
0.9997418559212996
0.9997411457042055
0.9997405055435229
0.9997399415607938
0.9997394593932201
0.9997390640538145
0.9997387599330582
0.9997385501856112
0
0
0.999698426515256
0.9996975313759539
0.9996966405071476
0.9996957543747782
0.9996948736938639