# vtk DataFile Version 2.0
2D-ADE data file 
ASCII
DATASET RECTILINEAR_GRID
DIMENSIONS 128 128 1 
X_COORDINATES 128 int
0 1 2 3 4 5 6 7 8 9 10 11 12 13 14 15 16 17 18 19 20 21 22 23 24 25 26 27 28 29 30 31 32 33 34 35 36 37 38 39 40 41 42 43 44 45 46 47 48 49 50 51 52 53 54 55 56 57 58 59 60 61 62 63 64 65 66 67 68 69 70 71 72 73 74 75 76 77 78 79 80 81 82 83 84 85 86 87 88 89 90 91 92 93 94 95 96 97 98 99 100 101 102 103 104 105 106 107 108 109 110 111 112 113 114 115 116 117 118 119 120 121 122 123 124 125 126 127 
Y_COORDINATES 128 int
0 1 2 3 4 5 6 7 8 9 10 11 12 13 14 15 16 17 18 19 20 21 22 23 24 25 26 27 28 29 30 31 32 33 34 35 36 37 38 39 40 41 42 43 44 45 46 47 48 49 50 51 52 53 54 55 56 57 58 59 60 61 62 63 64 65 66 67 68 69 70 71 72 73 74 75 76 77 78 79 80 81 82 83 84 85 86 87 88 89 90 91 92 93 94 95 96 97 98 99 100 101 102 103 104 105 106 107 108 109 110 111 112 113 114 115 116 117 118 119 120 121 122 123 124 125 126 127 
Z_COORDINATES 1 int
0
POINT_DATA 16384
SCALARS density double
LOOKUP_TABLE default
0
0
0
0
0
0
0
0
0
0
0
0
0
0
0
0
0
0
0
0
0
0
0
0
0
0
0
0
0
0
0
0
0
0
0
0
0
0
0
0
0
0
0
0
0
0
0
0
0
0
0
0
0
0
0
0
0
0
0
0
0
0
0
0
0
0
0
0
0
0
0
0
0
0
0
0
0
0
0
0
0
0
0
0
0
0
0
0
0
0
0
0
0
0
0
0
0
0
0
0
0
0
0
0
0
0
0
0
0
0
0
0
0
0
0
0
0
0
0
0
0
0
0
0
0
0
0
0
0
0.9996890137655244
0.9996890511538322
0.999688960602182
0.9996887095839737
0.9996883030453301
0.9996877749529969
0.9996871568191377
0.9996864748808517
0.9996857520407794
0.9996850086209007
0.999684262176826
0.9996835277255989
0.9996828180949884
0.9996821442252528
0.9996815154061247
0.9996809394867496
0.9996804230615942
0.9996799716323386
0.9996795897483157
0.9996792811293143
0.9996790487733506
0.9996788950514119
0.9996788217908255
0.9996788303486778
0.9996789216764526
0.9996790963768762
0.9996793547538015
0.9996796968558548
0.9996801225144585
0.9996806313767764
0.9996812229340519
0.9996818965457602
0.9996826514599515
0.9996834868301199
0.9996844017289053
0.999685395158911
0.9996864660608894
0.9996876133195399
0.9996888357671367
0.999690132185203
0.9996915013044225
0.9996929418029809
0.9996944523035168
0.9996960313688528
0.9996976774966776
0.999699389113335
0.9997011645668801
0.9997030021195554
0.9997048999398354
0.9997068560941829
0.9997088685386678
0.999710935110582
0.9997130535201887
0.9997152213427495
0.9997174360109536
0.9997196948078825
0.9997219948606417
0.9997243331347759
0.9997267064295937
0.9997291113745164
0.9997315444265577
0.9997340018690444
0.9997364798116747
0.9997389741920033
0.9997414807784353
0.9997439951748085
0.9997465128266151
0.9997490290289257
0.9997515389360481
0.999754037572946
0.9997565198484324
0.9997589805701279
0.9997614144611698
0.9997638161786299
0.9997661803335902
0.9997685015128008
0.9997707743018388
0.9997729933096493
0.9997751531943587
0.9997772486902091
0.9997792746354655
0.9997812260011208
0.9997830979202244
0.9997848857176277
0.9997865849399631
0.9997881913856332
0.9997897011346106
0.9997911105778311
0.9997924164459769
0.999793615837452
0.9997947062453579
0.9997956855832998
0.9997965522098723
0.999797304951694
0.9997979431248961
0.9997984665550039
0.9997988755951871
0.9997991711429036
0.9997993546550162
0.9997994281615101
0.9997993942780228
0.999799256217442
0.9997990178009345
0.9997986834688367
0.9997982582919435
0.9997977479838347
0.9997971589149928
0.9997964981295921
0.9997957733659856
0.9997949930820608
0.9997941664867557
0.9997933035791564
0.9997924151968121
0.9997915130755377
0.9997906099206977
0.9997897194876659
0.9997888566681706
0.9997880376114646
0.9997872798309664
0.9997866021485325
0.9997860241268042
0.9997855664074071
0.9997852511893032
0.9997850981758403
0.9997850886022306
0.9997851698662984
0
0
0.9996889784446961
0.999689020382329
0.9996889319059836
0.9996887012734129
0.9996883493604402
0.9996878928835043
0.9996873543822894
0.99968675596173
0.9996861181903153
0.999685459145849
0.9996847948008403
0.9996841391493223
0.9996835043584918
0.9996829009284954
0.9996823378782964
0.9996818229146063
0.9996813625834621
0.9996809624060267
0.9996806270007685
0.999680360192557
0.9996801651098237
0.9996800442710707
0.9996799996618431
0.9996800328031576
0.9996801448122252
0.9996803364562431
0.9996806081998992
0.9996809602471939
0.9996813925780768
0.9996819049803807
0.9996824970774418
0.9996831683517966
0.9996839181652701
0.9996847457757856
0.9996856503511462
0.9996866309800733
0.9996876866807173
0.999688816406886
0.9996900190521792
0.999691293452247
0.9996926383853392
0.9996940525713467
0.9996955346694875
0.9996970832748172
0.9996986969137096
0.99970037403848
0.9997021130212826
0.9997039121474436
0.999705769608368
0.9997076834941592
0.9997096517860936
0.9997116723490818
0.9997137429242536
0.9997158611217912
0.999718024414149
0.9997202301297704
0.9997224754474381
0.9997247573913683
0.9997270728271656
0.9997294184587494
0.9997317908263565
0.9997341863057213
0.9997366011085251
0.9997390312842
0.9997414727231672
0.9997439211615748
0.999746372187599
0.9997488212493467
0.9997512636644104
0.9997536946310781
0.999756109241223
0.9997585024948609
0.9997608693163536
0.9997632045722228
0.9997655030905207
0.9997677596816875
0.9997699691608142
0.9997721263711948
0.9997742262090704
0.9997762636494072
0.999778233772584
0.9997801317918042
0.9997819530810826
0.9997836932036014
0.9997853479402656
0.999786913318244
0.9997883856393132
0.99978976150779
0.9997910378578754
0.999792211980205
0.9997932815474464
0.9997942446387673
0.999795099763045
0.9997958458806828
0.9997964824239587
0.9997970093158296
0.9997974269871849
0.9997977363925503
0.9997979390243249
0.9997980369256484
0.9997980327020932
0.9997979295323793
0.999797731178452
0.9997974419952387
0.9997970669405676
0.9997966115857226
0.9997960821272464
0.999795485400628
0.9997948288966062
0.9997941207808151
0.9997933699175918
0.9997925858985961
0.9997917790765981
0.9997909606037559
0.9997901424746148
0.9997893375719469
0.9997885597088695
0.9997878236227243
0.9997871449292127
0.9997865400138437
0.9997860260087462
0.9997856194538594
0.9997853344488499
0.9997851772033852
0.9997851498480886
0.9997852278805575
0
0
0.9996890803864511
0.9996891260628974
0.999689039648124
0.999688824769121
0.9996885064496746
0.9996880971717043
0.999687616012188
0.999687081396957
0.9996865108402194
0.9996859202169186
0.9996853239563385
0.9996847348934079
0.999684164333651
0.9996836221612917
0.9996831169695516
0.9996826561797483
0.9996822461586046
0.9996818923294993
0.9996815992755403
0.9996813708335227
0.9996812101792864
0.9996811199050039
0.9996811020888505
0.9996811583576296
0.9996812899428583
0.9996814977308702
0.999681782307374
0.9996821439969539
0.9996825828978663
0.9996830989125637
0.9996836917742292
0.9996843610696905
0.999685106258951
0.9996859266916593
0.9996868216207151
0.9996877902132901
0.9996888315594409
0.9996899446785578
0.9996911285238054
0.9996923819847797
0.9996937038885165
0.9996950929990609
0.9996965480157218
0.9996980675702037
0.9996996502227363
0.9997012944573789
0.9997029986766154
0.9997047611954079
0.9997065802348225
0.9997084539153828
0.999710380250267
0.9997123571384925
0.9997143823582034
0.9997164535602002
0.999718568261819
0.9997207238412965
0.9997229175327225
0.9997251464217084
0.9997274074418682
0.9997296973722299
0.9997320128356693
0.999734350298463
0.9997367060710562
0.9997390763101155
0.9997414570219515
0.9997438440673665
0.9997462331679922
0.9997486199141515
0.9997509997742872
0.9997533681059672
0.9997557201684878
0.9997580511370495
0.9997603561185061
0.9997626301686273
0.9997648683108465
0.9997670655564029
0.9997692169258138
0.999771317471564
0.9997733623019113
0.9997753466056614
0.9997772656777921
0.9997791149457503
0.999780889996273
0.9997825866025449
0.9997842007515219
0.9997857286712164
0.9997871668577816
0.99978851210217
0.99978976151622
0.9997909125579523
0.9997919630559451
0.9997929112325977
0.9997937557261776
0.999794495611507
0.9997951304192226
0.9997956601535226
0.9997960853083991
0.9997964068823367
0.9997966263915515
0.9997967458818374
0.9997967679391884
0.9997966956993496
0.9997965328565693
0.9997962836718165
0.9997959529808204
0.9997955462022964
0.9997950693468038
0.9997945290266494
0.9997939324673082
0.9997932875206913
0.9997926026805499
0.9997918871000522
0.9997911506114772
0.9997904037460333
0.9997896577505464
0.9997889245953789
0.9997882169789967
0.9997875482918044
0.9997869325084753
0.9997863838645992
0.9997859168082726
0.9997855450903342
0.999785280851699
0.9997851283254319
0.9997851007341905
0.9997851939526641
0
0
0.9996893567376617
0.999689382430214
0.9996892808301728
0.9996890664980245
0.999688761528311
0.9996883795718966
0.9996879368068057
0.9996874480832195
0.9996869282880543
0.9996863913744852
0.9996858501489612
0.999685316143936
0.9996847996848632
0.999684309924083
0.9996838549047742
0.999683441642121
0.9996830762127766
0.9996827638415093
0.9996825089841572
0.999682315406104
0.9996821862554686
0.9996821241306052
0.9996821311418511
0.9996822089677787
0.9996823589061137
0.9996825819196666
0.9996828786774986
0.9996832495916831
0.9996836948498983
0.999684214444187
0.999684808196097
0.9996854757785141
0.9996862167343729
0.999687030492531
0.9996879163809648
0.9996888736375564
0.9996899014185968
0.9996909988052631
0.9996921648081767
0.9996933983702853
0.9996946983681552
0.9996960636119097
0.9996974928438951
0.9996989847362809
0.999700537887691
0.999702150819047
0.9997038219687244
0.9997055496871872
0.9997073322312042
0.999709167757807
0.9997110543180825
0.9997129898509589
0.9997149721770779
0.9997169989928993
0.999719067865133
0.9997211762256352
0.9997233213668621
0.999725500438009
0.9997277104419223
0.9997299482329014
0.9997322105154772
0.9997344938442658
0.9997367946249728
0.9997391091166391
0.999741433435188
0.9997437635583414
0.9997460953319562
0.9997484244778229
0.9997507466029565
0.9997530572104006
0.9997553517115533
0.999757625439999
0.9997598736668379
0.9997620916174635
0.9997642744897524
0.9997664174735829
0.9997685157716233
0.9997705646212676
0.9997725593176374
0.9997744952374954
0.9997763678639611
0.9997781728118534
0.9997799058535246
0.9997815629449921
0.9997831402522138
0.9997846341773073
0.9997860413845492
0.9997873588259465
0.9997885837662297
0.9997897138070644
0.9997907469103435
0.9997916814203801
0.9997925160849019
0.9997932500746838
0.9997938830017794
0.9997944149362276
0.9997948464212513
0.9997951784868928
0.9997954126621583
0.9997955509856984
0.999795596015166
0.9997955508353537
0.9997954190653391
0.9997952048647947
0.9997949129397683
0.9997945485481406
0.9997941175050754
0.9997936261886582
0.999793081545978
0.9997924910996886
0.9997918629550129
0.9997912058064462
0.999790528943272
0.9997898422525344
0.9997891562178138
0.9997884819019655
0.9997878309051632
0.9997872152875517
0.9997866475105648
0.9997861401794104
0.999785705693168
0.9997853552675834
0.9997851001698809
0.9997849484230448
0.9997849175294896
0.9997850162061164
0
0
0.9996897982792623
0.999689769147887
0.9996896337743044
0.9996894057044277
0.9996890999546267
0.9996887300179081
0.9996883095740047
0.9996878513906572
0.9996873682006888
0.9996868719991905
0.9996863739766318
0.99968588440209
0.9996854125864789
0.9996849668691904
0.9996845546566381
0.9996841824742253
0.999683856025864
0.9996835802573931
0.9996833594217706
0.9996831971429718
0.9996830964770279
0.9996830599696106
0.9996830897097077
0.9996831873792729
0.9996833542987026
0.9996835914682987
0.9996838996057447
0.9996842791798528
0.9996847304406636
0.9996852534461911
0.9996858480859087
0.999686514101272
0.999687251103375
0.9996880585880232
0.9996889359483151
0.9996898824849958
0.9996908974146733
0.9996919798761443
0.9996931289349044
0.9996943435860843
0.9996956227558818
0.9996969653017073
0.9996983700111189
0.9996998355997517
0.9997013607083078
0.9997029438988089
0.9997045836501781
0.9997062783533308
0.9997080263058583
0.9997098257064623
0.9997116746492305
0.9997135711179054
0.9997155129802253
0.999717497982497
0.9997195237444728
0.9997215877546733
0.9997236873662447
0.9997258197934703
0.9997279821090247
0.9997301712420815
0.9997323839773564
0.9997346169551844
0.9997368666727019
0.9997391294862212
0.999741401614856
0.999743679145463
0.9997459580389487
0.9997482341379818
0.9997505031761427
0.999752760788527
0.9997550025238113
0.9997572238577699
0.999759420208228
0.9997615869514104
0.999763719439644
0.9997658130203382
0.9997678630561811
0.9997698649464396
0.9997718141492737
0.999773706204925
0.9997755367596697
0.999777301590358
0.9997789966294213
0.9997806179901423
0.999782161992059
0.9997836251862763
0.9997850043805603
0.9997862966639803
0.9997874994309733
0.9997886104046113
0.9997896276589539
0.9997905496402872
0.9997913751871648
0.9997921035490699
0.9997927344036669
0.9997932678724977
0.9997937045351389
0.9997940454417374
0.9997942921239861
0.999794446604526
0.9997945114049012
0.9997944895520966
0.9997943845838547
0.9997942005528504
0.9997939420299365
0.9997936141065663
0.9997932223965905
0.9997927730374475
0.9997922726908204
0.9997917285425074
0.9997911483012818
0.9997905401959982
0.9997899129695943
0.9997892758669347
0.9997886386149586
0.9997880113916379
0.9997874047782556
0.9997868296595115
0.9997862971074598
0.999785818200842
0.9997854039270201
0.999785064504025
0.9997848105381705
0.9997846518408721
0.9997846023455841
0.999784673431967
0
0
0.9996903709107201
0.9996902701805488
0.9996900867231572
0.9996898294303167
0.9996895092555536
0.9996891377972985
0.9996887262574117
0.999688285619236
0.9996878266250904
0.999687359530638
0.999686894056792
0.9996864392310103
0.9996860033222525
0.999685593822319
0.9996852174550533
0.9996848801981816
0.999684587320214
0.9996843434258411
0.9996841525048844
0.9996840179822684
0.9996839427675895
0.9996839293032502
0.9996839796102239
0.9996840953310991
0.9996842777700338
0.9996845279296338
0.999684846544585
0.9996852341122024
0.9996856909198641
0.9996862170695403
0.9996868124994465
0.9996874770030643
0.9996882102455654
0.9996890117779026
0.9996898810486061
0.9996908174135408
0.9996918201436708
0.9996928884310751
0.9996940213932628
0.999695218076017
0.9996964774548152
0.9996977984350519
0.9996991798511045
0.9997006204644553
0.9997021189609177
0.9997036739471684
0.9997052839466313
0.9997069473949085
0.9997086626348047
0.9997104279111347
0.9997122413653581
0.9997141010302267
0.9997160048244873
0.9997179505478162
0.9997199358760378
0.9997219583567837
0.9997240154056491
0.9997261043029969
0.9997282221914602
0.9997303660742821
0.9997325328145438
0.9997347191354021
0.999736921621381
0.9997391367208294
0.9997413607495714
0.9997435898958418
0.9997458202265324
0.9997480476948052
0.9997502681490896
0.9997524773434943
0.9997546709496269
0.9997568445698268
0.999758993751784
0.9997611140045134
0.9997632008156349
0.9997652496699008
0.9997672560688876
0.999769215551767
0.9997711237170491
0.9997729762451734
0.9997747689218291
0.9997764976618421
0.9997781585335008
0.9997797477831254
0.999781261859749
0.9997826974396944
0.99978405145091
0.9997853210968451
0.999786503879728
0.9997875976230342
0.9997886004930238
0.9997895110191435
0.9997903281132078
0.9997910510871746
0.9997916796694689
0.9997922140197023
0.9997926547417975
0.9997930028954004
0.9997932600056422
0.9997934280711893
0.9997935095706864
0.9997935074675719
0.9997934252134263
0.9997932667498456
0.9997930365090099
0.9997927394129356
0.9997923808715178
0.9997919667792609
0.9997915035106558
0.9997909979138138
0.9997904573018515
0.9997898894410916
0.9997893025352746
0.9997887052035386
0.9997881064484192
0.9997875156087311
0.9997869423028624
0.9997863963494363
0.9997858876574777
0.9997854260410224
0.9997850212118948
0.9997846825874654
0.9997844197932705
0.9997842425787441
0.9997841614892625
0.9997841852562931
0
0
0.9996910446500067
0.9996908634551991
0.9996906207768047
0.9996903223552255
0.9996899765984247
0.9996895922744163
0.9996891784134895
0.9996887442267196
0.999688298711715
0.999687850597847
0.9996874082243677
0.999686979419735
0.9996865714406555
0.9996861909318424
0.999685843909863
0.9996855357688064
0.9996852713008989
0.9996850547254001
0.9996848897230688
0.9996847794741445
0.999684726697645
0.9996847336906617
0.9996848023665862
0.9996849342917988
0.9996851307202331
0.9996853926256938
0.9996857207316162
0.9996861155383565
0.9996865773478526
0.9996871062858356
0.9996877023215147
0.9996883652849683
0.9996890948821956
0.9996898907080906
0.999690752257308
0.9996916789332916
0.9996926700554433
0.9996937248647034
0.9996948425275252
0.9996960221385048
0.9996972627216592
0.9996985632306
0.9996999225476034
0.9997013394818085
0.9997028127665563
0.9997043410560862
0.9997059229216079
0.9997075568469573
0.9997092412238561
0.9997109743469763
0.9997127544088367
0.999714579494718
0.9997164475776299
0.9997183565135095
0.9997203040366835
0.9997222877557715
0.999724305150058
0.9997263535664966
0.9997284302173887
0.9997305321788729
0.9997326563902752
0.9997347996544367
0.9997369586390655
0.9997391298792178
0.99974130978094
0.9997434946261584
0.9997456805788452
0.9997478636925141
0.9997500399190631
0.9997522051189975
0.9997543550730256
0.9997564854950325
0.9997585920464068
0.9997606703516907
0.9997627160155068
0.9997647246407012
0.9997666918476276
0.9997686132944793
0.9997704846985758
0.9997723018584704
0.9997740606767715
0.9997757571835052
0.9997773875599034
0.9997789481624175
0.9997804355468266
0.9997818464922227
0.9997831780247433
0.999784427440819
0.9997855923298083
0.9997866705957975
0.9997876604784429
0.9997885605726481
0.9997893698469815
0.9997900876606385
0.9997907137789034
0.9997912483869336
0.9997916921018671
0.9997920459831142
0.9997923115408834
0.9997924907428337
0.9997925860189496
0.999792600264569
0.9997925368416756
0.9997923995784057
0.9997921927668798
0.9997919211592672
0.9997915899621408
0.9997912048288969
0.9997907718501295
0.9997902975415129
0.999789788828762
0.9997892530285691
0.9997886978243335
0.999788131235331
0.9997875615783438
0.9997869974166084
0.9997864474933994
0.999785920651071
0.9997854257520346
0.9997849715618989
0.9997845667066522
0.9997842196605187
0.9997839387506776
0.9997837321879848
0.9997836084999934
0.9997835737059158
0
0
0.9996917944037085
0.999691527535577
0.9996912180785822
0.9996908701313907
0.9996904895790728
0.9996900828879185
0.999689657261118
0.9996892201336308
0.9996887789362938
0.9996883409979779
0.9996879133836555
0.9996875028054966
0.999687115550279
0.9996867574273631
0.9996864337429097
0.9996861492931162
0.9996859083700061
0.999685714777333
0.999685571853719
0.9996854825003559
0.9996854492110797
0.9996854741036887
0.999685558951281
0.9996857052130077
0.9996859140635
0.9996861864207849
0.9996865229722547
0.9996869241987225
0.9996873903962935
0.9996879216962126
0.9996885180825129
0.9996891794076941
0.9996899054063075
0.9996906957067067
0.9996915498408828
0.999692467252645
0.9996934473040897
0.9996944892806227
0.9996955923944857
0.9996967557870544
0.9996979785298623
0.9996992596246108
0.9997005980021335
0.9997019925205608
0.9997034419626603
0.9997049450325932
0.9997065003520631
0.9997081064560984
0.9997097617884355
0.9997114646967503
0.9997132134277058
0.9997150061220478
0.9997168408097318
0.9997187154052992
0.9997206277034931
0.9997225753753165
0.9997245559645348
0.999726566884809
0.9997286054174642
0.9997306687100697
0.9997327537758338
0.9997348574939756
0.9997369766110703
0.9997391077435188
0.9997412473811353
0.9997433918919654
0.999745537528344
0.999747680434266
0.999749816654066
0.9997519421424657
0.9997540527759533
0.9997561443655356
0.9997582126708031
0.9997602534153129
0.9997622623032193
0.9997642350371051
0.9997661673369399
0.9997680549600683
0.999769893722141
0.9997716795188505
0.9997734083483716
0.9997750763343282
0.9997766797491756
0.9997782150377935
0.9997796788411596
0.9997810680198871
0.9997823796774887
0.9997836111831349
0.9997847601937797
0.9997858246754133
0.9997868029233324
0.9997876935811925
0.9997884956587599
0.999789208548145
0.9997898320384628
0.999790366328734
0.9997908120390102
0.9997911702195643
0.9997914423581789
0.9997916303853965
0.9997917366778076
0.9997917640592604
0.9997917158000883
0.9997915956142418
0.9997914076544123
0.9997911565049793
0.9997908471728211
0.9997904850756972
0.9997900760280781
0.9997896262238781
0.9997891422157102
0.999788630889863
0.9997880994360585
0.9997875553101824
0.999787006189281
0.9997864599182803
0.9997859244464284
0.999785407748887
0.9997849177494474
0.9997844622474457
0.9997840488442329
0.9997836849285204
0.9997833776110204
0.9997831334077197
0.9997829588598017
0.9997828584782422
0
0
0.9996925980694641
0.9996922425360197
0.9996918616358551
0.9996914581305529
0.9996910356902189
0.9996905991268396
0.9996901539502732
0.9996897060070298
0.9996892613364803
0.9996888259810994
0.9996884058435853
0.9996880065989336
0.9996876336136266
0.9996872918924867
0.9996869860454916
0.9996867202703322
0.9996864983482097
0.9996863236503644
0.9996861991518192
0.9996861274503214
0.9996861107886075
0.9996861510787971
0.9996862499275513
0.9996864086614026
0.9996866283514166
0.9996869098369737
0.9996872537481138
0.9996876605264596
0.9996881304443529
0.9996886636223489
0.9996892600448146
0.9996899195738539
0.9996906419613726
0.9996914268595404
0.9996922738295131
0.9996931823486878
0.9996941518163749
0.9996951815581789
0.9996962708289737
0.9996974188147754
0.9996986246334092
0.999699887334263
0.999701205897042
0.9997025792298019
0.9997040061661915
0.9997054854621702
0.99970701579214
0.9997085957447508
0.9997102238183218
0.9997118984161346
0.9997136178415488
0.9997153802931807
0.9997171838601084
0.9997190265173324
0.9997209061214634
0.999722820406855
0.9997247669821588
0.9997267433275087
0.9997287467923137
0.999730774593857
0.9997328238166822
0.9997348914129409
0.9997369742036964
0.9997390688813282
0.9997411720130318
0.9997432800455376
0.99974538931104
0.9997474960344304
0.9997495963418126
0.999751686270376
0.9997537617795851
0.9997558187637254
0.9997578530657526
0.9997598604924506
0.999761836830822
0.9997637778656829
0.999765679398365
0.9997675372664527
0.9997693473644516
0.9997711056652608
0.9997728082423389
0.999774451292402
0.9997760311585163
0.9997775443534024
0.9997789875828057
0.999780357768716
0.9997816520722963
0.9997828679162823
0.9997840030067222
0.9997850553538058
0.9997860232916735
0.9997869054969525
0.9997877010059367
0.9997884092301733
0.9997890299703984
0.9997895634286107
0.9997900102182651
0.9997903713723968
0.9997906483497
0.999790843038394
0.9997909577579425
0.9997909952584647
0.9997909587179312
0.9997908517369714
0.9997906783313774
0.9997904429220908
0.9997901503226838
0.9997898057240223
0.9997894146760075
0.9997889830658843
0.9997885170927446
0.9997880232374385
0.9997875082274497
0.999786978995689
0.9997864426319465
0.9997859063262851
0.9997853773059918
0.9997848627651587
0.9997843697877102
0.9997839052796305
0.9997834758853331
0.9997830878960149
0.9997827472265861
0.9997824590819425
0.9997822280281541
0.9997820574032867
0
0
0.9996934360285
0.9996929908751494
0.9996925358522798
0.9996920725311794
0.9996916029934673
0.9996911306882378
0.9996906596397523
0.9996901943684129
0.9996897396626063
0.9996893004004576
0.9996888814295621
0.9996884874666927
0.9996881230177604
0.9996877923237144
0.9996874993215839
0.9996872476210196
0.9996870404934513
0.9996868808711425
0.9996867713534902
0.9996867142190679
0.9996867114414221
0.9996867647075147
0.9996868754374729
0.9996870448051024
0.9996872737582377
0.9996875630387123
0.9996879132013153
0.9996883246317482
0.999688797563131
0.9996893320912077
0.9996899281879258
0.999690585713606
0.9996913044274703
0.9996920839967789
0.9996929240043902
0.9996938239550313
0.9996947832801094
0.9996958013413725
0.9996968774332606
0.9996980107842705
0.9996992005571839
0.9997004458484774
0.9997017456867782
0.9997030990306826
0.9997045047658085
0.9997059617013889
0.9997074685662931
0.9997090240047741
0.999710626571832
0.9997122747284926
0.9997139668368934
0.9997157011554718
0.9997174758341567
0.9997192889098401
0.9997211383020526
0.9997230218090994
0.9997249371045899
0.9997268817346077
0.9997288531154581
0.9997308485322268
0.999732865138096
0.9997348999546243
0.9997369498729484
0.9997390116560957
0.999741081942353
0.9997431572498662
0.9997452339824142
0.9997473084364992
0.9997493768096906
0.999751435210337
0.9997534796685712
0.999755506148685
0.9997575105627907
0.9997594887857999
0.9997614366716321
0.9997633500706287
0.9997652248480797
0.9997670569037879
0.9997688421925649
0.99977057674554
0.9997722566921597
0.9997738782827215
0.9997754379112991
0.9997769321388793
0.9997783577165512
0.9997797116085332
0.999780991014892
0.9997821933937094
0.9997833164825547
0.9997843583190095
0.9997853172601252
0.9997861920005494
0.9997869815892299
0.999787685444441
0.9997883033670754
0.9997888355519603
0.9997892825971799
0.9997896455111841
0.9997899257177096
0.9997901250583066
0.9997902457925336
0.9997902905956331
0.9997902625537589
0.9997901651565658
0.9997900022872279
0.9997897782096503
0.9997894975529009
0.9997891652925242
0.9997887867286653
0.9997883674605371
0.9997879133570166
0.9997874305226633
0.9997869252587268
0.9997864040185496
0.9997858733570569
0.9997853398733074
0.9997848101465049
0.9997842906679143
0.9997837877649453
0.999783307524089
0.999782855710821
0.9997824376492347
0.9997820581217887
0.9997817212527021
0.9997814300655588
0.9997811868094157
0
0
0.9996942912193811
0.9996937568261053
0.999693226357174
0.9996927004704833
0.9996921801149359
0.9996916675643852
0.999691165640389
0.9996906777327952
0.9996902075210209
0.9996897588542418
0.9996893356261038
0.9996889416750999
0.9996885807096341
0.9996882562521154
0.9996879715975152
0.9996877297866725
0.9996875335906397
0.9996873855043689
0.9996872877475891
0.9996872422714311
0.999687250768927
0.9996873146884999
0.999687435249122
0.9996876134566348
0.9996878501202637
0.9996881458691526
0.999688501168213
0.9996889163333238
0.9996893915453579
0.9996899268632035
0.9996905222353829
0.9996911775105147
0.9996918924463033
0.9996926667173518
0.9996934999215321
0.9996943915852372
0.9996953411672828
0.9996963480617967
0.9996974115998841
0.9996985310504218
0.999699705619774
0.9997009344507871
0.9997022166208753
0.9997035511395432
0.9997049369451723
0.9997063729014094
0.9997078577930012
0.999709390321398
0.9997109690999862
0.9997125926492647
0.9997142593918326
0.9997159676474988
0.9997177156283905
0.9997195014343574
0.999721323048563
0.9997231783335521
0.9997250650276878
0.9997269807422384
0.9997289229590223
0.9997308890288646
0.9997328761707891
0.9997348814721824
0.9997369018898529
0.999738934252204
0.9997409752624506
0.9997430215030636
0.99974506944138
0.9997471154365325
0.9997491557476247
0.9997511865432803
0.9997532039124863
0.9997552038768137
0.9997571824039263
0.9997591354224211
0.9997610588379038
0.9997629485502859
0.9997648004721998
0.999766610548469
0.9997683747765178
0.9997700892276078
0.9997717500687695
0.9997733535852797
0.9997748962035308
0.9997763745141106
0.9997777852949298
0.9997791255341799
0.9997803924529587
0.9997815835273232
0.999782696509616
0.9997837294487975
0.9997846807096651
0.9997855489906703
0.9997863333402512
0.9997870331713884
0.9997876482743391
0.9997881788272752
0.9997886254048074
0.9997889889841496
0.999789270948948
0.9997894730905362
0.9997895976066833
0.9997896470976129
0.9997896245593716
0.9997895333743297
0.999789377298888
0.9997891604481371
0.999788887277523
0.999788562561188
0.9997881913669714
0.9997877790276238
0.9997873311081307
0.9997868533686248
0.9997863517226482
0.9997858321901064
0.9997853008449293
0.9997847637572033
0.9997842269291615
0.9997836962265577
0.999783177303703
0.9997826755197341
0.9997821958485417
0.9997817427851939
0.9997813201576478
0.9997809311359608
0.9997805776314773
0.999780261009404
0
0
0.9996951487994507
0.9996945263744088
0.9996939201414903
0.9996933301069336
0.9996927563533141
0.9996922002043721
0.9996916635138755
0.999691148694739
0.9996906584710734
0.9996901957867735
0.9996897636774617
0.9996893651842077
0.999689003281448
0.9996886808213997
0.9996884004927781
0.9996881647923364
0.9996879760062529
0.9996878362003624
0.9996877472170904
0.99968771067793
0.9996877279897882
0.9996878003544809
0.9996879287800511
0.9996881140935063
0.9996883569540015
0.9996886578663282
0.9996890171939673
0.9996894351717671
0.9996899119176695
0.9996904474436825
0.9996910416656319
0.9996916944119756
0.9996924054312959
0.9996931743988013
0.9996940009215056
0.9996948845424477
0.9996958247436516
0.9996968209482142
0.9996978725212381
0.9996989787700009
0.9997001389431056
0.9997013522290034
0.9997026177536392
0.9997039345776187
0.9997053016926545
0.999706718017686
0.9997081823944489
0.9997096935828741
0.9997112502561037
0.9997128509955043
0.9997144942854777
0.999716178508425
0.9997179019396956
0.9997196627428595
0.9997214589651442
0.9997232885333668
0.9997251492502154
0.9997270387911944
0.9997289547021009
0.9997308943973323
0.9997328551589006
0.9997348341364326
0.9997368283480437
0.9997388346823408
0.9997408499014483
0.9997428706452799
0.9997448934369622
0.999746914689594
0.9997489307142489
0.9997509377293712
0.9997529318714633
0.9997549092071755
0.9997568657466923
0.9997587974584747
0.9997607002852442
0.9997625701612245
0.9997644030305021
0.9997661948664825
0.9997679416922882
0.9997696396020106
0.9997712847826699
0.9997728735367329
0.9997744023050334
0.9997758676899046
0.999777266478357
0.9997785956650801
0.9997798524750948
0.9997810343858059
0.9997821391482956
0.9997831648075834
0.9997841097217076
0.9997849725793507
0.9997857524158907
0.9997864486275957
0.9997870609838826
0.9997875896373725
0.9997880351316992
0.9997883984068145
0.999788680801804
0.9997888840549626
0.9997890103011894
0.9997890620664587
0.99978904225946
0.9997889541601588
0.9997888014053905
0.9997885879712045
0.9997883181520663
0.9997879965365811
0.999787627979812
0.9997872175717883
0.9997867706021953
0.9997862925207912
0.9997857888935436
0.9997852653539886
0.9997847275497171
0.9997841810839329
0.9997836314516609
0.9997830839705124
0.9997825437054303
0.9997820153877922
0.9997815033116296
0.9997810112606454
0.9997805423039186
0.9997800988282921
0.9997796819187958
0.9997792923054724
0
0
0.9996959957726547
0.9996952870413892
0.999694605454586
0.9996939505407159
0.9996933217158306
0.9996927195606636
0.9996921451306793