# vtk DataFile Version 2.0
2D-ADE data file 
ASCII
DATASET RECTILINEAR_GRID
DIMENSIONS 128 128 1 
X_COORDINATES 128 int
0 1 2 3 4 5 6 7 8 9 10 11 12 13 14 15 16 17 18 19 20 21 22 23 24 25 26 27 28 29 30 31 32 33 34 35 36 37 38 39 40 41 42 43 44 45 46 47 48 49 50 51 52 53 54 55 56 57 58 59 60 61 62 63 64 65 66 67 68 69 70 71 72 73 74 75 76 77 78 79 80 81 82 83 84 85 86 87 88 89 90 91 92 93 94 95 96 97 98 99 100 101 102 103 104 105 106 107 108 109 110 111 112 113 114 115 116 117 118 119 120 121 122 123 124 125 126 127 
Y_COORDINATES 128 int
0 1 2 3 4 5 6 7 8 9 10 11 12 13 14 15 16 17 18 19 20 21 22 23 24 25 26 27 28 29 30 31 32 33 34 35 36 37 38 39 40 41 42 43 44 45 46 47 48 49 50 51 52 53 54 55 56 57 58 59 60 61 62 63 64 65 66 67 68 69 70 71 72 73 74 75 76 77 78 79 80 81 82 83 84 85 86 87 88 89 90 91 92 93 94 95 96 97 98 99 100 101 102 103 104 105 106 107 108 109 110 111 112 113 114 115 116 117 118 119 120 121 122 123 124 125 126 127 
Z_COORDINATES 1 int
0
POINT_DATA 16384
SCALARS density double
LOOKUP_TABLE default
0
0
0
0
0
0
0
0
0
0
0
0
0
0
0
0
0
0
0
0
0
0
0
0
0
0
0
0
0
0
0
0
0
0
0
0
0
0
0
0
0
0
0
0
0
0
0
0
0
0
0
0
0
0
0
0
0
0
0
0
0
0
0
0
0
0
0
0
0
0
0
0
0
0
0
0
0
0
0
0
0
0
0
0
0
0
0
0
0
0
0
0
0
0
0
0
0
0
0
0
0
0
0
0
0
0
0
0
0
0
0
0
0
0
0
0
0
0
0
0
0
0
0
0
0
0
0
0
0
0.9996914869204827
0.9996915012021941
0.999691383252444
0.9996910975529056
0.9996906404556759
0.9996900454215363
0.9996893450908008
0.999688566704784
0.9996877341186503
0.999686868677713
0.9996859889669492
0.9996851110031316
0.9996842485748372
0.9996834135426373
0.9996826160754
0.9996818648615915
0.9996811672978516
0.9996805296541905
0.9996799572178248
0.9996794544191548
0.9996790249423045
0.9996786718221667
0.9996783975295862
0.999678204046139
0.9996780929297007
0.9996780653718427
0.999678122247924
0.9996782641606383
0.9996784914776636
0.9996788043639937
0.9996792028094431
0.9996796866517864
0.9996802555959159
0.9996809092293979
0.9996816470347456
0.9996824683987191
0.9996833726189355
0.9996843589080471
0.9996854263957368
0.9996865741287679
0.9996878010692996
0.999689106091685
0.999690487977952
0.999691945412156
0.999693476973794
0.9996950811304609
0.9996967562299167
0.9996985004917396
0.9997003119987283
0.9997021886882118
0.9997041283434285
0.9997061285851268
0.9997081868635321
0.9997103004508366
0.999712466434344
0.9997146817104186
0.999716942979362
0.9997192467413609
0.999721589293615
0.9997239667287783
0.9997263749348145
0.9997288095963761
0.9997312661978048
0.9997337400278306
0.9997362261860558
0.9997387195912795
0.9997412149917175
0.9997437069771511
0.9997461899930318
0.9997486583565383
0.9997511062745833
0.9997535278637341
0.9997559171719995
0.9997582682024136
0.9997605749383319
0.9997628313703273
0.9997650315245588
0.9997671694924666
0.9997692394616293
0.9997712357475902
0.9997731528264658
0.9997749853681078
0.9997767282696004
0.9997783766888488
0.9997799260780207
0.9997813722165827
0.9997827112436877
0.9997839396896646
0.9997850545063712
0.9997860530961804
0.9997869333393866
0.9997876936198438
0.9997883328486696
0.9997888504858717
0.9997892465598093
0.9997895216844185
0.9997896770741972
0.9997897145569861
0.9997896365846357
0.9997894462417267
0.9997891472525634
0.9997887439867394
0.9997882414636701
0.9997876453565371
0.9997869619962304
0.9997861983759314
0.9997853621571121
0.9997844616778068
0.9997835059641516
0.9997825047462461
0.9997814684794366
0.9997804083721022
0.9997793364210568
0.9997782654559867
0.9997772091912424
0.999776182280772
0.9997752003718425
0.9997742801872652
0.9997734395636176
0.9997726972631669
0.9997720722494907
0.9997715842043247
0.9997712537921781
0.9997710954571561
0.9997710729938812
0.9997711298802086
0
0
0.9996914164057702
0.9996914471213879
0.9996913352505332
0.9996910680188588
0.9996906651781106
0.9996901432781509
0.9996895249685972
0.9996888329882517
0.9996880887752448
0.9996873113154188
0.9996865174956391
0.9996857222212349
0.999684938554872
0.999684177866613
0.9996834500160868
0.9996827635206055
0.9996821257073918
0.9996815428508443
0.9996810202965984
0.9996805625726053
0.9996801734881355
0.9996798562218933
0.9996796134002651
0.999679447166714
0.9996793592431218
0.9996793509839107
0.9996794234235717
0.9996795773182641
0.9996798131819786
0.9996801313177972
0.999680531844636
0.9996810147199157
0.999681579758466
0.999682226648044
0.9996829549617189
0.9996837641674504
0.999684653635078
0.9996856226410115
0.999686670370809
0.9996877959199041
0.9996889982926553
0.9996902763999469
0.9996916290555072
0.9996930549711511
0.9996945527511033
0.9996961208855963
0.9996977577438895
0.9996994615668895
0.9997012304595149
0.9997030623829756
0.9997049551471036
0.9997069064028923
0.9997089136353806
0.9997109741570327
0.9997130851017371
0.9997152434195689
0.9997174458724378
0.9997196890307466
0.9997219692711805
0.9997242827757359
0.9997266255320981
0.9997289933354653
0.9997313817919048
0.9997337863233279
0.9997362021741536
0.9997386244197081
0.9997410479764258
0.999743467613866
0.9997458779685772
0.9997482735598002
0.9997506488070116
0.9997529980492531
0.9997553155662265
0.9997575956010607
0.9997598323846846
0.9997620201616847
0.9997641532175429
0.9997662259070866
0.9997682326840244
0.9997701681313556
0.9997720269924989
0.9997738042029005
0.9997754949219375
0.999777094564863
0.9997785988345849
0.9997800037530247
0.9997813056918331
0.9997825014022182
0.999783588043677
0.9997845632113946
0.9997854249621351
0.9997861718384198
0.9997868028908662
0.9997873176985255
0.9997877163871629
0.9997879996453847
0.9997881687386355
0.999788225521061
0.9997881724453522
0.9997880125706743
0.9997877495689081
0.9997873877294301
0.9997869319627799
0.999786387803579
0.9997857614131774
0.9997850595825265
0.999784289735883
0.9997834599359297
0.9997825788909976
0.9997816559649626
0.9997807011904285
0.9997797252854742
0.9997787396737504
0.9997777565064755
0.9997767886856861
0.9997758498852954
0.9997749545591851
0.9997741178877833
0.9997733556768508
0.999772684201033
0.999772120045372
0.9997716784382845
0.9997713709147411
0.9997712008395427
0.9997711645920243
0.9997712356485469
0
0
0.9996914913800037
0.9996915337385308
0.9996914271879598
0.9996911758544447
0.9996908073886637
0.9996903339416048
0.9996897747226754
0.9996891488133708
0.9996884744921235
0.9996877684231327
0.9996870458648789
0.9996863204944394
0.9996856044529451
0.9996849084450832
0.9996842418654511
0.9996836129150471
0.9996830287175654
0.9996824954307817
0.9996820183503599
0.999681602004826
0.9996812502419685
0.9996809663071046
0.9996807529135239
0.9996806123056923
0.9996805463156494
0.9996805564132044
0.9996806437503329
0.9996808092003114
0.9996810533919371
0.9996813767392971
0.999681779467375
0.9996822616339089
0.9996828231477276
0.9996834637839362
0.9996841831961477
0.999684980926079
0.9996858564106899
0.9996868089871507
0.9996878378957955
0.9996889422813215
0.9996901211923749
0.9996913735797673
0.9996926982934511
0.9996940940784746
0.9996955595700449
0.9996970932879022
0.9996986936301276
0.9997003588665742
0.9997020871320411
0.99970387641937
0.9997057245725771
0.9997076292801934
0.99970958806892
0.9997115982977608
0.999713657152743
0.9997157616423636
0.999717908593881
0.9997200946505672
0.9997223162700426
0.9997245697237858
0.9997268510979348
0.9997291562954587
0.9997314810397953
0.999733820880025
0.9997361711976505
0.9997385272150286
0.9997408840055142
0.9997432365053235
0.999745579527153
0.9997479077755439
0.9997502158639785
0.9997524983336787
0.9997547496740622
0.9997569643447785
0.9997591367992599
0.9997612615096618
0.9997633329930997
0.999765345839018
0.9997672947375678
0.999769174508792
0.9997709801324672
0.9997727067783743
0.9997743498368239
0.9997759049491844
0.9997773680382331
0.9997787353380614
0.9997800034233504
0.9997811692377556
0.99978223012123
0.999783183836031
0.9997840285912694
0.9997847630657872
0.9997853864292514
0.9997858983613022
0.9997862990687049
0.9997865893004017
0.999786770360488
0.999786844119089
0.9997868130212443
0.9997866800938686
0.9997864489509924
0.9997861237974511
0.9997857094313256
0.9997852112453938
0.999784635228
0.9997839879636701
0.9997832766339312
0.9997825090186891
0.9997816934985706
0.9997808390584109
0.9997799552919737
0.9997790524076338
0.9997781412344944
0.99977723322614
0.9997763404578848
0.9997754756116981
0.9997746519532698
0.9997738832563815
0.9997731836339142
0.999772567168027
0.9997720478585391
0.9997716385513138
0.9997713492399634
0.9997711817694588
0.9997711506495406
0.999771251049197
0
0
0.9996917549937521
0.9996917787850379
0.9996916578177573
0.9996914083576697
0.9996910539972073
0.99969060860902
0.999690089062297
0.9996895107869135
0.9996888893177641
0.9996882393415275
0.9996875744362642
0.9996869069130656
0.9996862478772378
0.9996856072552752
0.9996849938528237
0.9996844154322767
0.9996838788005513
0.9996833898949864
0.9996829538661445
0.9996825751565254
0.9996822575741438
0.9996820043604542
0.99968181825242
0.9996817015389775
0.9996816561119689
0.999681683511933
0.9996817849689162
0.9996819614387294
0.9996822136348389
0.9996825420562944
0.9996829470118761
0.9996834286408341
0.9996839869303789
0.9996846217302715
0.9996853327646542
0.9996861196414314
0.9996869818593365
0.99968791881297
0.9996889297959242
0.999690014002262
0.9996911705264568
0.9996923983620442
0.9996936963990812
0.9996950634206476
0.9996964980984832
0.9996979989879815
0.9996995645226303
0.9997011930081015
0.9997028826160878
0.9997046313780662
0.9997064371790982
0.9997082977518226
0.9997102106707504
0.9997121733470206
0.9997141830237091
0.9997162367718387
0.9997183314871926
0.9997204638880486
0.9997226305139457
0.9997248277255789
0.9997270517059218
0.9997292984626668
0.9997315638320612
0.9997338434842139
0.9997361329299345
0.999738427529153
0.9997407225009732
0.9997430129353659
0.999745293806541
0.9997475599879777
0.999749806269115
0.9997520273736523
0.999754217979437
0.999756372739847
0.9997584863066172
0.9997605533539773
0.9997625686040222
0.9997645268531449
0.9997664229994214
0.9997682520707484
0.9997700092535873
0.999771689922099
0.9997732896674988
0.9997748043273853
0.9997762300148758
0.999777563147283
0.9997788004741592
0.9997799391044525
0.9997809765326143
0.9997819106634027
0.9997827398352571
0.9997834628420165
0.9997840789528953
0.9997845879305285
0.9997849900470566
0.9997852860981201
0.9997854774148012
0.999785565873448
0.9997855539034943
0.9997854444932952
0.9997852411941652
0.9997849481227183
0.999784569961777
0.9997841119600148
0.9997835799306567
0.9997829802494256
0.9997823198520697
0.9997816062315916
0.9997808474353882
0.999780052062218
0.9997792292587672
0.9997783887148073
0.9997775406557867
0.9997766958311682
0.9997758654960142
0.9997750613723015
0.9997742955820537
0.9997735805475302
0.9997729289060554
0.9997723531838558
0.9997718653651849
0.9997714760483085
0.9997711958881175
0.999771031638581
0.9997710012836737
0.9997711142663387
0
0
0.9996921941881264
0.9996921619670199
0.9996920071663067
0.9996917444195289
0.9996913894747786
0.999690956645236
0.9996904603265554
0.9996899138314097
0.9996893305503747
0.9996887231736823
0.9996881036033166
0.999687482833856
0.9996868709092088
0.9996862768999096
0.999685708936706
0.9996851742594389
0.9996846792743399
0.9996842296160605
0.9996838302121196
0.9996834853464933
0.9996831987205104
0.9996829735104152
0.9996828124209688
0.9996827177349916
0.9996826913585781
0.9996827348622004
0.9996828495176467
0.999683036331119
0.9996832960725148
0.9996836293012531
0.9996840363886974
0.9996845175375394
0.9996850727982067
0.9996857020826377
0.9996864051754923
0.9996871817431214
0.9996880313403589
0.9996889534154465
0.9996899473131439
0.999691012276315
0.9996921474460487
0.9996933518605817
0.9996946244530801
0.9996959640485292
0.9996973693597966
0.9996988389830909
0.9997003713928899
0.9997019649365494
0.9997036178286556
0.9997053281453271
0.9997070938185393
0.9997089126306458
0.9997107822091832
0.9997127000221224
0.999714663373647
0.999716669400611
0.9997187150697572
0.9997207971758324
0.9997229123406794
0.9997250570134231
0.9997272274718276
0.9997294198249224
0.999731630016968
0.9997338538328311
0.9997360869048333
0.9997383247211211
0.9997405626355944
0.9997427958794224
0.9997450195741625
0.9997472287464748
0.9997494183444305
0.9997515832553653
0.9997537183252531
0.9997558183795164
0.9997578782452183
0.9997598927745078
0.9997618568692481
0.9997637655066528
0.9997656137658308
0.9997673968550391
0.9997691101395119
0.9997707491696403
0.999772309709353
0.9997737877644427
0.9997751796106898
0.9997764818215079
0.99977769129496
0.9997788052798748
0.9997798214009235
0.9997807376823887
0.9997815525705203
0.9997822649542315
0.9997828741840662
0.9997833800892318
0.9997837829926723
0.9997840837240369
0.999784283630576
0.9997843845858743
0.9997843889965259
0.9997842998067269
0.9997841205009574
0.9997838551047886
0.9997835081840422
0.9997830848423844
0.9997825907176109
0.9997820319766885
0.9997814153097905
0.9997807479232795
0.9997800375316866
0.9997792923483291
0.9997785210742655
0.9997777328846337
0.9997769374107659
0.9997761447147955
0.9997753652554956
0.999774609841582
0.9997738895645919
0.9997732156756937
0.9997725994588899
0.9997720520501787
0.9997715842965347
0.9997712060219465
0.9997709277132082
0.9997707591616424
0.9997707143641305
0.9997708052194126
0
0
0.9996927729490418
0.9996926672958103
0.9996924634182749
0.9996921708072641
0.9996918012059753
0.9996913670093017
0.99969088003119
0.9996903518747171
0.9996897939301093
0.9996892170980071
0.999688631767644
0.9996880476500439
0.9996874737035785
0.9996869181103918
0.9996863882821794
0.9996858908786296
0.9996854318418683
0.9996850164402823
0.9996846493163617
0.9996843345359513
0.9996840756372787
0.9996838756787139
0.9996837372841348
0.999683662685584
0.9996836537627238
0.9996837120791522
0.9996838389153276
0.9996840352983363
0.9996843020283863
0.9996846397023383
0.9996850487342192
0.9996855293730593
0.9996860817180242
0.9996867057311967
0.9996874012479844
0.9996881679855025
0.9996890055489209
0.9996899134361049
0.9996908910405503
0.9996919376529176
0.9996930524611781
0.9996942345496544
0.9996954828969764
0.9996967963732162
0.9996981737362273
0.9996996136274351
0.9997011145671144
0.9997026749493755
0.9997042930369082
0.9997059669556898
0.9997076946897022
0.9997094740758653
0.9997113027992214
0.9997131783885729
0.9997150982126081
0.9997170594767006
0.9997190592204259
0.9997210943159537
0.9997231614673725
0.9997252572110769
0.999727377917276
0.9997295197927331
0.9997316788847886
0.9997338510867547
0.9997360321447214
0.999738217665838
0.9997404031281
0.9997425838916685
0.9997447552117398
0.9997469122529581
0.9997490501053703
0.9997511638018755
0.9997532483371452
0.9997552986879321
0.9997573098347171
0.9997592767845679
0.9997611945951378
0.9997630583996395
0.9997648634326938
0.9997666050568523
0.9997682787896766
0.9997698803311387
0.999771405591205
0.9997728507173522
0.9997742121218598
0.9997754865086181
0.9997766708992986
0.9997777626586108
0.9997787595185194
0.9997796596011415
0.9997804614402255
0.9997811640009573
0.999781766698028
0.9997822694117372
0.9997826725021227
0.999782976820935
0.9997831837214934
0.9997832950663068
0.9997833132325524
0.9997832411153439
0.9997830821289543
0.9997828402059534
0.9997825197944834
0.9997821258536479
0.999781663847247
0.9997811397358096
0.9997805599670836
0.9997799314648227
0.9997792616158532
0.9997785582549399
0.9997778296469205
0.9997770844650936
0.9997763317650635
0.99977558095151
0.9997748417340251
0.9997741240679036
0.9997734380875124
0.9997727940147225
0.9997722020332289
0.9997716721072136
0.9997712140447416
0.9997708372629016
0.9997705514058484
0.9997703665222879
0.99977029374687
0.9997703422159232
0
0
0.9996934605364137
0.9996932719007723
0.9996930069613851
0.9996926719494839
0.9996922760432706
0.999691828628412
0.9996913393472312
0.9996908180366533
0.9996902742982794
0.9996897174764807
0.9996891565443116
0.9996885999725745
0.9996880556670406
0.9996875309252563
0.9996870324165927
0.999686566184946
0.999686137667182
0.9996857517203324
0.999685412654708
0.9996851242709045
0.9996848898982836
0.9996847124336206
0.9996845943786685
0.999684537876235
0.9996845447440359
0.9996846165062806
0.9996847544225694
0.9996849595142754
0.9996852325881599
0.9996855742574983
0.9996859849605596
0.9996864649767587
0.9996870144403796
0.9996876333522104
0.9996883215890102
0.9996890789111539
0.999689904968392
0.9996907993040619
0.9996917613577043
0.9996927904664056
0.9996938858648248
0.9996950466842207
0.9996962719504418
0.9996975605811735
0.9996989113824213
0.9997003230445057
0.9997017941375529
0.999703323106743
0.9997049082673143
0.9997065477995546
0.9997082397437991
0.9997099819956496
0.9997117723014313
0.9997136082541007
0.999715487289615
0.999717406683967
0.9997193635508984
0.9997213548404801
0.9997233773385725
0.9997254276673371
0.9997275022868144
0.999729597497709
0.9997317094454103
0.9997338341253508
0.9997359673897258
0.999738104955659
0.999740242414818
0.9997423752445338
0.9997444988204177
0.999746608430493
0.999748699290818
0.9997507665625779
0.9997528053706046
0.9997548108232567
0.999756778033603
0.9997587021417897
0.9997605783385253
0.9997624018895108
0.9997641681607261
0.9997658726443722
0.9997675109853519
0.9997690790080526
0.9997705727433072
0.9997719884552625
0.9997733226680272
0.9997745721918104
0.9997757341484195
0.9997768059958282
0.9997777855516917
0.9997786710155241
0.9997794609894407
0.999780154497194
0.999780751001451
0.9997812504190561
0.9997816531342795
0.9997819600098427
0.9997821723957612
0.9997822921358446
0.9997823215719577
0.9997822635459224
0.999782121399212
0.9997818989703574
0.9997816005902523
0.9997812310752802
0.9997807957184497
0.9997803002784232
0.9997797509665584
0.9997791544317015
0.9997785177426715
0.9997778483679536
0.9997771541521987
0.9997764432883631
0.999775724284441
0.9997750059236222
0.9997742972170313
0.9997736073434278
0.9997729455754019
0.9997723211967688
0.9997717434264032
0.9997712212944122
0.9997707636463801
0.9997703792016206
0.9997700765558697
0.9997698642635378
0.9997697516801174
0.9997697453520835
0
0
0.9996942310420649
0.9996939535881013
0.9996936194243934
0.9996932331088452
0.9996928011562274
0.9996923305723621
0.9996918291521276
0.9996913049030176
0.9996907658285258
0.9996902198446987
0.999689674611915
0.9996891374465062
0.9996886152476326
0.999688114441613
0.9996876409533346
0.9996872001972491
0.9996867970810377
0.9996864360197831
0.9996861209576848
0.9996858553946327
0.9996856424152661
0.9996854847194449
0.9996853846527242
0.9996853442363156
0.9996853651956279
0.9996854489873054
0.999685596824197
0.9996858096983938
0.9996860884019565
0.9996864335456002
0.9996868455750648
0.9996873247855098
0.999687871333723
0.999688485248511
0.9996891664391079
0.9996899147019693
0.9996907297258196
0.9996916110953188
0.9996925582932328
0.9996935707014588
0.9996946476008166
0.999695788169932
0.9996969914831416
0.9996982565077303
0.9996995821004367
0.999700967003532
0.9997024098404079
0.9997039091109694
0.9997054631867787
0.9997070703062255
0.9997087285696833
0.9997104359349142
0.9997121902126836
0.9997139890628389
0.9997158299908189
0.9997177103448254
0.9997196273136438
0.9997215779253169
0.9997235590466637
0.9997255673838279
0.9997275994838616
0.9997296517374884
0.9997317203830607
0.9997338015118379
0.9997358910745776
0.9997379848895548
0.9997400786519874
0.9997421679449441
0.9997442482517154
0.9997463149696745
0.9997483634256
0.9997503888924475
0.9997523866075227
0.9997543517919986
0.9997562796717102
0.9997581654991329
0.999760004576441
0.999761792279523
0.9997635240828252
0.9997651955848516
0.9997668025341859
0.9997683408558173
0.999769806677624
0.9997711963567701
0.9997725065058574
0.9997737340185695
0.9997748760946551
0.9997759302639647
0.9997768944094176
0.9997777667886012
0.9997785460539085
0.9997792312709284
0.999779821935032
0.9997803179858895
0.9997807198199079
0.9997810283003635
0.9997812447652614
0.9997813710327413
0.9997814094041173
0.9997813626644015
0.9997812340804537
0.9997810273966288
0.999780746828095
0.9997803970516966
0.9997799831945283
0.9997795108200418
0.9997789859118009
0.9997784148545817
0.9997778044127641
0.9997771617054663
0.9997764941781451
0.9997758095698879
0.999775115875559
0.9997744213011344
0.9997737342122878
0.9997730630760061
0.9997724163929855
0.9997718026177571
0.9997712300926208
0.9997707069877014
0.9997702412391707
0.9997698405851974
0.9997695125799154
0.9997692641896736
0.9997691027570969
0.9997690333899489
0
0
0.999695061505808
0.9996946917533692
0.9996942832435556
0.9996938391312059
0.999693363595869
0.9996928619465759
0.9996923402243266
0.9996918047999864
0.9996912622546709
0.9996907191806605
0.999690182039112
0.9996896570738654
0.9996891502280766
0.9996886670887686
0.9996882128517036
0.9996877923018209
0.9996874098070522
0.9996870693232568
0.9996867744064987
0.9996865282307766
0.999686333609145
0.9996861930171232
0.9996861086168457
0.9996860822814528
0.9996861156187297
0.9996862099938866
0.9996863665507885
0.9996865862317653
0.9996868697955125
0.9996872178333539
0.9996876307834964
0.9996881089436246
0.9996886524815438
0.9996892614442583
0.9996899357652356
0.9996906752702666
0.9996914796817042
0.9996923486214848
0.9996932816127484
0.9996942780804494
0.9996953373507922
0.9996964586498749
0.9996976411013903
0.9996988837237504
0.999700185426502
0.9997015450063795
0.9997029611428849
0.9997044323937133
0.9997059571899319
0.9997075338312236
0.9997091604810965
0.9997108351623728
0.9997125557528634
0.9997143199815155
0.999716125424969
0.9997179695047771
0.9997198494852408
0.9997217624720964
0.9997237054120103
0.9997256750930998
0.9997276681464435
0.9997296810487697
0.9997317101262965
0.9997337515598796
0.9997358013914424
0.9997378555318188
0.9997399097699693
0.9997419597836734
0.9997440011516527
0.9997460293671787
0.9997480398531189
0.9997500279784272
0.999751989076018
0.9997539184619824
0.9997558114560748
0.9997576634033729
0.9997594696970246
0.9997612258019413
0.9997629272793258
0.9997645698118514
0.9997661492293649
0.9997676615348886
0.9997691029307871
0.9997704698448284
0.9997717589560088
0.999772967219843
0.9997740918929934
0.9997751305569222
0.9997760811404561
0.9997769419409432
0.9997777116439154
0.9997783893409494
0.9997789745456698
0.9997794672076108
0.9997798677239246
0.9997801769486804
0.9997803961997986
0.9997805272633913
0.9997805723956139
0.9997805343218242
0.9997804162332059
0.9997802217806724
0.999779955066231
0.999779620631633
0.9997792234444784
0.9997787688815538
0.9997782627095264
0.9997777110626659
0.9997771204176065
0.9997764975646478
0.9997758495753544
0.9997751837657475
0.9997745076549145
0.9997738289180632
0.9997731553331415
0.9997724947212281
0.9997718548835486
0.9997712435325655
0.9997706682216293
0.999770136295886
0.9997696548294371
0.99976923054111
0.9997688698552502
0.9997685785135851
0.9997683618399872
0.9997682237523615
0
0
0.9996959314779397
0.9996954681230683
0.9996949822192958
0.9996944756637471
0.9996939509693044
0.9996934120292568
0.9996928633388174
0.9996923099023606
0.9996917570098245
0.9996912100503618
0.9996906743948031
0.9996901552933304
0.9996896577935728
0.999689186685113
0.9996887464585582
0.9996883412802063
0.9996879749794677
0.9996876510464042
0.9996873726365539
0.9996871425817411
0.9996869634046529
0.9996868373362061
0.999686766334175
0.9996867521026643
0.9996867961113237
0.9996868996142192
0.9996870636675771
0.9996872891465469
0.9996875767603918
0.9996879270664037
0.9996883404820724
0.9996888172958884
0.9996893576764005
0.9996899616799427
0.9996906292567086
0.9996913602556108
0.9996921544276419
0.9996930114281711
0.9996939308179341
0.9996949120631345
0.9996959545344414
0.9996970575052897
0.9996982201492907
0.9996994415371404
0.9997007206328478
0.9997020562896689
0.9997034472455703
0.9997048921185969
0.9997063894019859
0.9997079374593826
0.9997095345200135
0.9997111786741602
0.9997128678687974
0.9997145999037279
0.9997163724280906
0.9997181829375454
0.999720028772041
0.9997219071144384
0.9997238149899074
0.9997257492663497
0.9997277066557752
0.999729683716858
0.999731676858608
0.9997336823453473
0.9997356963029431
0.9997377147264472
0.9997397334890881
0.9997417483527382
0.9997437549797911
0.9997457489465306
0.9997477257579241
0.9997496808638672
0.9997516096768019
0.9997535075906953
0.9997553700012781
0.9997571923274766
0.999758970033929
0.999760698654463
0.9997623738164138
0.9997639912656049
0.9997655468918526
0.999767036754788
0.9997684571098292
0.9997698044340647
0.9997710754518827
0.999772267160065
0.9997733768521956
0.9997744021420816
0.999775340986042
0.9997761917037664
0.9997769529976206
0.9997776239700973
0.9997782041393457
0.9997786934524713
0.999779092296601
0.9997794015074266
0.9997796223752718
0.9997797566484302
0.9997798065338688
0.9997797746950755
0.9997796642471927
0.9997794787492384
0.9997792221935826
0.999778898992481
0.9997785139618367
0.9997780723019595
0.999777579575461
0.999777041681956
0.9997764648296357
0.9997758555032711
0.999775220428612
0.9997745665325305
0.9997739008987617
0.9997732307189268
0.999772563238835
0.9997719056992251
0.999771265272833
0.9997706490009622
0.9997700637243149
0.9997695160163989
0.9997690121287633
0.9997685578752741
0.9997681585774538
0.9997678189230177
0.9997675426658229
0.9997673326006818
0
0
0.9996968231305928
0.9996962662892511
0.9996957013702538
0.9996951293065593
0.9996945514198411
0.9996939703731944
0.9996933894097397
0.9996928123612727
0.9996922433667077
0.9996916867489585
0.9996911468889179
0.9996906281231468
0.9996901346677621
0.9996896705608862
0.99968923961937
0.9996888454105252
0.9996884912348367
0.999688180118202
0.9996879148113849
0.9996876977954026
0.99968753129076
0.9996874172698135
0.9996873574707227
0.9996873534126612
0.9996874064111058
0.9996875175931953
0.999687687912289
0.9996879181619046
0.9996882089883589
0.9996885609024467
0.9996889742895957
0.9996894494189172
0.99968998645069
0.9996905854427303
0.9996912463552488
0.9996919690546751
0.9996927533160871
0.9996935988247311
0.9996945051763064
0.9996954718764975
0.9996964983394457
0.9996975838856399
0.9996987277389411
0.9996999290231964
0.9997011867581943
0.9997024998553868
0.9997038671131524
0.999705287212015
0.999706758709602
0.9997082800357462
0.9997098494875319
0.9997114652246648
0.9997131252649942
0.9997148274805415
0.9997165695938834
0.9997183491752213
0.9997201636400044
0.9997220102474168
0.9997238860996057
0.9997257881419437
0.9997277131642123
0.9997296578029704
0.9997316185450082
0.9997335917321181
0.99973557356709
0.9997375601211281
0.9997395473425987
0.9997415310672658
0.9997435070299245
0.9997454708775438
0.9997474181838256
0.9997493444652383
0.9997512451984232
0.999753115838985
0.9997549518415477
0.9997567486810327
0.9997585018750277
0.9997602070071449
0.9997618597512272
0.9997634558962438
0.9997649913717174
0.9997664622734831
0.9997678648896057
0.9997691957262108
0.9997704515330623
0.9997716293285914
0.9997727264242319
0.999773740447734
0.9997746693653276
0.9997755115023959
0.9997762655625584
0.9997769306448268
0.9997775062587665
0.9997779923373411
0.999778389247423
0.9997786977976681
0.9997789192437947
0.9997790552909837
0.9997791080935085
0.9997790802513308
0.9997789748038258
0.9997787952203927
0.9997785453881458
0.9997782295964519
0.9997778525185204
0.9997774191897821
0.9997769349832553
0.9997764055815727
0.9997758369458161
0.9997752352807402
0.9997746069964885
0.9997739586663671
0.9997732969806689
0.9997726286961066
0.9997719605813671
0.9997712993587033
0.9997706516412648
0.9997700238687457
0.9997694222406877
0.9997688526399339
0.999768320559621
0.9997678310191642
0.9997673884043516
0.999766996447775
0.9997666577575648
0.9997663742138574
0
0
0.9996977209106166
0.9996970715826031
0.999696427090612
0.9996957876784295
0.999695153752437
0.9996945269782194
0.9996939095873512
0.99969330439233
0.9996927145369842
0.9996921434018238
0.9996915944734952
0.9996910712564548
0.9996905771993172
0.9996901156375305
0.9996896897504864
0.9996893025315872
0.9996889567680783
0.9996886550299383
0.9996883996654242
0.9996881928023255
0.999688036353027
0.9996879320228487
0.9996878813201043
0.9996878855676794
0.9996879459149185
0.9996880633498865
0.9996882387110589
0.9996884726986895
0.9996887658850894
0.999689118724211
0.9996895315598868
0.9996900046331991
0.9996905380884246
0.999691131978066
0.9996917862664922
0.9996925008327071
0.9996932754718192
0.9996941098957444
0.9996950037327409
0.9996959565263092
0.9996969677330844
0.9996980367202436
0.9996991627620798
0.9997003450362483
0.9997015826193684
0.9997028744824616
0.9997042194859309
0.9997056163745526
0.9997070637721968
0.9997085601767363
0.9997101039548789
0.9997116933373642
0.9997133264142762
0.9997150011309012
0.9997167152838996
0.9997184665181914
0.999720252324361
0.9997220700369407
0.9997239168334038
0.9997257897342089
0.9997276856037312
0.9997296011523948
0.9997315329398655
0.9997334773795729
0.9997354307444408
0.9997373891740553
0.9997393486831487
0.9997413051716013
0.9997432544358265
0.9997451921816994
0.9997471140389002
0.9997490155767634
0.9997508923215136
0.999752739774916
0.999754553434209
0.9997563288132947
0.9997580614650385
0.999759747004597
0.9997613811336061
0.9997629596650955
0.9997644785489501
0.9997659338977224
0.9997673220126176
0.9997686394094019
0.9997698828440534
0.9997710493378643
0.9997721362018311
0.9997731410600007
0.9997740618716263
0.9997748969517983
0.9997756449904185
0.9997763050691807
0.9997768766764797
0.9997773597199044
0.9997777545362966
0.9997780618990489
0.9997782830226819
0.9997784195643997
0.9997784736227227
0.9997784477329253
0.999778344859437
0.9997781683849508
0.9997779220964477
0.9997776101678844
0.9997772371397844
0.9997768078954625
0.999776327634129
0.9997758018405632
0.9997752362515905
0.9997746368190028
0.9997740096691163
0.9997733610585966
0.9997726973268192
0.9997720248443651
0.9997713499579284
0.9997706789319049
0.9997700178864924
0.9997693727318382
0.9997687490997265
0.9997681522699563
0.9997675870775445
0.9997670578460144
0.9997665682085651
0.9997661211066619
0.9997657182842451
0.9997653609571496
0
0
0.9996986111590669
0.9996978708992631
0.9996971470482688
0.9996964393416611
0.999695747478001
0.9996950723397287
0.9996944153194228