# vtk DataFile Version 2.0
2D-ADE data file 
ASCII
DATASET RECTILINEAR_GRID
DIMENSIONS 128 128 1 
X_COORDINATES 128 int
0 1 2 3 4 5 6 7 8 9 10 11 12 13 14 15 16 17 18 19 20 21 22 23 24 25 26 27 28 29 30 31 32 33 34 35 36 37 38 39 40 41 42 43 44 45 46 47 48 49 50 51 52 53 54 55 56 57 58 59 60 61 62 63 64 65 66 67 68 69 70 71 72 73 74 75 76 77 78 79 80 81 82 83 84 85 86 87 88 89 90 91 92 93 94 95 96 97 98 99 100 101 102 103 104 105 106 107 108 109 110 111 112 113 114 115 116 117 118 119 120 121 122 123 124 125 126 127 
Y_COORDINATES 128 int
0 1 2 3 4 5 6 7 8 9 10 11 12 13 14 15 16 17 18 19 20 21 22 23 24 25 26 27 28 29 30 31 32 33 34 35 36 37 38 39 40 41 42 43 44 45 46 47 48 49 50 51 52 53 54 55 56 57 58 59 60 61 62 63 64 65 66 67 68 69 70 71 72 73 74 75 76 77 78 79 80 81 82 83 84 85 86 87 88 89 90 91 92 93 94 95 96 97 98 99 100 101 102 103 104 105 106 107 108 109 110 111 112 113 114 115 116 117 118 119 120 121 122 123 124 125 126 127 
Z_COORDINATES 1 int
0
POINT_DATA 16384
SCALARS density double
LOOKUP_TABLE default
0
0
0
0
0
0
0
0
0
0
0
0
0
0
0
0
0
0
0
0
0
0
0
0
0
0
0
0
0
0
0
0
0
0
0
0
0
0
0
0
0
0
0
0
0
0
0
0
0
0
0
0
0
0
0
0
0
0
0
0
0
0
0
0
0
0
0
0
0
0
0
0
0
0
0
0
0
0
0
0
0
0
0
0
0
0
0
0
0
0
0
0
0
0
0
0
0
0
0
0
0
0
0
0
0
0
0
0
0
0
0
0
0
0
0
0
0
0
0
0
0
0
0
0
0
0
0
0
0
0.9997375697949883
0.9997395888808585
0.999740868963994
0.9997411470155384
0.9997411865951208
0.9997411831474757
0.9997411476386632
0.9997411090446742
0.9997411062719793
0.999741165648272
0.9997413042775742
0.9997415352334039
0.9997418686127464
0.9997423116482577
0.9997428691413992
0.9997435439059181
0.9997443370631159
0.9997452482495215
0.9997462757849807
0.9997474168123555
0.999748667415826
0.9997500227262268
0.999751477019547
0.9997530238119988
0.9997546559535174
0.9997563657206812
0.9997581449094436
0.9997599849276905
0.999761876887408
0.9997638116961278
0.9997657801472208
0.9997677730085714
0.999769781109127
0.9997717954228011
0.9997738071492062
0.9997758077906859
0.9997777892251489
0.9997797437742215
0.9997816642662685
0.9997835440938854
0.9997853772655075
0.9997871584508309
0.9997888830198087
0.9997905470750295
0.9997921474773516
0.9997936818647142
0.9997951486641047
0.9997965470966995
0.9997978771762492
0.9997991397008076
0.9998003362379505
0.999801469103645
0.9998025413349779
0.9998035566569553
0.9998045194436258
0.9998054346737921
0.9998063078816036
0.999807145102341
0.9998079528137351
0.9998087378731777
0.9998095074512194
0.9998102689617809
0.9998110299895235
0.9998117982148802
0.9998125813372643
0.9998133869970222
0.9998142226967297
0.9998150957224611
0.9998160130657037
0.999816981346608
0.9998180067392968
0.9998190948999658
0.9998202508985249
0.9998214791545288
0.999822783378141
0.9998241665168436
0.9998256307086019
0.9998271772421229
0.9998288065248209
0.9998305180590255
0.9998323104268974
0.9998341812844422
0.9998361273649071
0.9998381444917553
0.9998402276013046
0.9998423707750019
0.999844567281195
0.9998468096261459
0.9998490896139174
0.9998513984146526
0.999853726640665
0.9998560644296565
0.9998584015342958
0.9998607274173235
0.9998630313512707
0.9998653025218603
0.9998675301341065
0.9998697035201336
0.9998718122477408
0.9998738462287591
0.999875795826299
0.9998776519600631
0.999879406208989
0.9998810509106568
0.9998825792570827
0.999883985386868
0.9998852644741417
0.9998864128154564
0.9998874279167347
0.9998883085840259
0.9998890550246579
0.9998896689677003
0.9998901538106031
0.9998905148031667
0.9998907593215423
0.999890897299806
0.9998909416405162
0.9998909082513291
0.9998908171124762
0.9998906979382789
0.9998905937978284
0.9998905360231399
0.9998905350149879
0.9998908028555119
0.9998921735439432
0.999894355793013
0
0
0.9997397718130725
0.9997405043546381
0.9997411267853599
0.9997414839322466
0.9997416753829944
0.9997417475816739
0.9997417813732504
0.9997418223445271
0.9997418967498111
0.9997420252548521
0.9997422255233697
0.9997425110760011
0.9997428918797929
0.9997433752151798
0.999743966164361
0.9997446678864295
0.9997454818565703
0.9997464080721344
0.999747445217534
0.9997485907985886
0.999749841258621
0.9997511920832153
0.9997526378979771
0.9997541725624339
0.999755789262118
0.9997574805999931
0.9997592386877311
0.9997610552369663
0.9997629216503919
0.9997648291123808
0.9997667686787112
0.9997687313648973
0.9997707082325955
0.9997726904735157
0.9997746694902793
0.9997766369736617
0.9997785849756823
0.9997805059780394
0.9997823929554144
0.9997842394332372
0.9997860395395404
0.9997877880505998
0.9997894804301117
0.999791112861723
0.999792682274782
0.9997941863632475
0.999795623597729
0.9997969932307006
0.9997982952949568
0.9997995305954333
0.9998007006945425
0.9998018078912054
0.9998028551937947
0.9998038462872211
0.9998047854944214
0.9998056777325279
0.999806528464018
0.9998073436431641
0.9998081296581255
0.9998088932690523
0.9998096415425836
0.9998103817831726
0.9998111214616743
0.9998118681416877
0.999812629404159
0.9998134127708037
0.9998142256269187
0.9998150751442129
0.9998159682042984
0.999816911323518
0.9998179105798101
0.9998189715423302
0.9998200992045526
0.9998212979215864
0.9998225713524319
0.9998239224078819
0.99982535320475
0.9998268650270734
0.9998284582948808
0.999830132541062
0.9998318863968028
0.9998337175859696
0.9998356229287357
0.9998375983546457
0.9998396389252096
0.9998417388660031
0.9998438916081485
0.9998460898389223
0.9998483255611341
0.9998505901608002
0.9998528744825383
0.9998551689120062
0.9998574634646199
0.9998597478797102
0.9998620117192141
0.9998642444699504
0.9998664356484952
0.9998685749076627
0.9998706521436062
0.9998726576025779
0.999874581986447
0.9998764165561579
0.9998781532324355
0.9998797846932092
0.9998813044674999
0.9998827070258193
0.9998839878676614
0.9998851436073337
0.9998861720604026
0.9998870723341428
0.9998878449265746
0.9998884918413928
0.9998890167319681
0.9998894250857591
0.9998897244392542
0.9998899246254429
0.9998900382501548
0.9998900815843204
0.9998900751412808
0.9998900423302411
0.9998900121765549
0.9998900343904654
0.999890196745629
0.9998905491438885
0.9998911984227986
0.999891973382678
0
0
0.9997416135285311
0.9997416120465432
0.9997418013848303
0.9997421125932523
0.9997422932571155
0.9997423855689263
0.9997424656475169
0.9997425593728365
0.9997426855492229
0.9997428641194016
0.999743111503458
0.999743439790619
0.9997438582569046
0.9997443739809805
0.9997449920084763
0.9997457155545186
0.9997465462337052
0.9997474842407541
0.999748528491688
0.9997496767455138
0.9997509257135249
0.9997522711590845
0.9997537079913551
0.9997552303558869
0.9997568317238916
0.9997585049811906
0.9997602425173399
0.9997620363150507
0.9997638780397706
0.9997657591290944
0.99976767088156
0.9997696045442984
0.9997715513989632
0.9997735028453376
0.9997754504820171
0.9997773861835685
0.9997793021736017
0.9997811910932182
0.9997830460643494
0.9997848607475477
0.9997866293938572
0.9997883468904493
0.9997900087997686
0.9997916113920121
0.9997931516708058
0.999794627392024
0.9997960370757409
0.9997973800113522
0.9997986562559649
0.9997998666261758
0.999801012683413
0.999802096713034
0.9998031216974049
0.9998040912832111
0.9998050097432685
0.9998058819331249
0.999806713242759
0.9998075095437049
0.9998082771319436
0.9998090226669406
0.9998097531071977
0.9998104756427577
0.9998111976250859
0.9998119264948024
0.9998126697077744
0.9998134346600901
0.999814228612486
0.9998150586148248
0.9998159314312483
0.9998168534666613
0.9998178306952268
0.999818868591563
0.9998199720653568
0.9998211454001003
0.9998223921966606
0.9998237153223752
0.9998251168663408
0.9998265981015289
0.9998281594543188
0.9998298004819725
0.9998315198585178
0.9998333153694225
0.9998351839153554
0.9998371215252332
0.999839123378654
0.9998411838377048
0.999843296488017
0.9998454541888323
0.9998476491317357
0.9998498729075753
0.9998521165810177
0.9998543707720527
0.999856625743697
0.9998588714950477
0.9998610978587839
0.9998632946021546
0.9998654515304642
0.9998675585920421
0.9998696059837013
0.9998715842557103
0.9998734844153682
0.9998752980283532
0.9998770173171567
0.9998786352560806
0.9998801456625408
0.9998815432847469
0.9998828238862703
0.9998839843285772
0.9998850226535037
0.99988593816882
0.999886731540554
0.9998874048949757
0.9998879619378118
0.9998884081127775
0.999888750810132
0.999888999539414
0.9998891660538186
0.9998892649740945
0.9998893154042082
0.9998893399669888
0.9998893595696985
0.999889402533418
0.9998895519103516
0.9998898530118382
0.9998900269068769
0.9998899986969894
0
0
0.9997427643777735
0.9997427027502256
0.9997427778549045
0.9997428923654743
0.9997429888942566
0.9997430896765643
0.9997431904908464
0.9997433078603775
0.9997434650277193
0.9997436782706528
0.9997439596364196
0.99974431957522
0.9997447667209919
0.9997453075880645
0.9997459468212583
0.9997466874594241
0.9997475310845618
0.9997484779391924
0.9997495270441082
0.9997506763071055
0.9997519226203149
0.999753261950658
0.9997546894270236
0.9997561994258962
0.9997577856565466
0.9997594412465564
0.9997611588280687
0.9997629306248015
0.9997647485396135
0.9997666042422593
0.9997684892568373
0.9997703950483595
0.9997723131078287
0.9997742350351795
0.9997761526194421
0.9997780579154956
0.9997799433168202
0.9997818016236786
0.9997836261062272
0.9997854105620975
0.9997871493680653
0.9997888375254828
0.9997904706992207
0.9997920452499293
0.9997935582595072
0.9997950075497056
0.9997963916938792
0.9997977100219276
0.9997989626185378
0.9998001503148566
0.9998012746737869
0.9998023379691081
0.9998033431586633
0.9998042938518747
0.9998051942718644
0.9998060492124852
0.9998068639905723
0.9998076443937494
0.9998083966241402
0.9998091272383497
0.9998098430841019
0.9998105512339445
0.9998112589164514
0.9998119734453825
0.9998127021472887
0.9998134522880757
0.9998142309990758
0.9998150452032061
0.9998159015418155
0.9998168063028545
0.9998177653510264
0.9998187840605892
0.9998198672515006
0.9998210191295934
0.9998222432314747
0.9998235423748228
0.9998249186147378
0.9998263732067718
0.9998279065772108
0.9998295183011393
0.9998312070887458
0.9998329707802466
0.9998348063497393
0.9998367099181762
0.9998386767755738
0.9998407014124442
0.999842777560343
0.9998448982412954
0.9998470558257687
0.9998492420987198
0.9998514483331757
0.9998536653706613
0.9998558837077282
0.9998580935877387
0.9998602850969983
0.9998624482642662
0.999864573162646
0.999866650012836
0.9998686692867182
0.9998706218103044
0.9998724988650934
0.9998742922870089
0.9998759945621802
0.9998775989190294
0.9998790994163332
0.9998804910272353
0.9998817697196023
0.999882932533549
0.9998839776573123
0.999884904503322
0.9998857137883621
0.9998864076227565
0.9998869896057442
0.9998874649163685
0.9998878404357494
0.9998881249937108
0.999888329597252
0.9998884670423013
0.9998885516155362
0.9998886019670192
0.9998886440729393
0.99988869615815
0.9998887531681387
0.9998888388611228
0.9998888890764145
0.9998887974107379
0
0
0.9997438443559613
0.9997437669765938
0.999743736765099
0.9997437281732713
0.9997437723791205
0.9997438440647324
0.9997439336643745
0.9997440590667606
0.9997442333998828
0.9997444668739617
0.9997447698734409
0.9997451515865673
0.9997456192378789
0.9997461783923823
0.9997468331740693
0.9997475863051754
0.9997484391722836
0.9997493919287882
0.9997504435910906
0.9997515921231689
0.9997528345175706
0.9997541668754522
0.9997555844857937
0.9997570819045192
0.9997586530344414
0.9997602912065392
0.9997619892626822
0.9997637396396828
0.9997655344543793
0.9997673655893003
0.9997692247783699
0.9997711036920216
0.9997729940210612
0.9997748875586004
0.9997767762793716
0.9997786524157664
0.9997805085299754
0.9997823375816294
0.9997841329904307
0.9997858886932913
0.9997875991955896
0.9997892596162065
0.999790865726088
0.9997924139801418
0.9997939015423544
0.9997953263040664
0.9997966868954196
0.9997979826900338
0.9997992138030242
0.9998003810825128
0.9998014860948289
0.9998025311036167
0.9998035190431048
0.9998044534858042
0.9998053386049359
0.9998061791318823
0.9998069803089985
0.9998077478381101
0.9998084878250557
0.9998092067206363
0.9998099112583565
0.9998106083893579
0.9998113052149736
0.9998120089173447
0.999812726688572
0.999813465658909
0.9998142328245122
0.9998150349753202
0.9998158786236317
0.9998167699340023
0.9998177146550873
0.9998187180540876
0.999819784854458
0.999820919177554
0.9998221244888882
0.999823403549649
0.9998247583741338
0.9998261901936977
0.9998276994277908
0.9998292856626051
0.9998309476377822
0.9998326832415664
0.9998344895147049
0.999836362663306
0.9998382980807532
0.9998402903786942
0.9998423334269864
0.9998444204023865
0.9998465438456423
0.999848695726549
0.9998508675164042
0.9998530502672122
0.9998552346968701
0.9998574112795089
0.9998595703400637
0.9998617021521169
0.9998637970379844
0.9998658454700287
0.999867838172153
0.9998697662204683
0.9998716211421698
0.9998733950117422
0.9998750805437199
0.9998766711813888
0.9998781611810116
0.9998795456913779
0.9998808208287684
0.9998819837478702
0.9998830327096304
0.9998839671468154
0.9998847877273399
0.9998854964182465
0.9998860965593591
0.9998865929407337
0.999886991836504
0.9998873010066819
0.9998875298968214
0.9998876899318543
0.9998877936204004
0.999887853012348
0.9998878830874582
0.9998879037383503
0.9998879042208999
0.999887856376665
0.9998877941843881
0.9998876894556071
0
0
0.9997449586903302
0.9997447899951206
0.9997446690959014
0.9997446025139654
0.9997445891652826
0.9997446142448324
0.9997446851758276
0.9997448067957149
0.9997449839979912
0.9997452257689491
0.999745540649742
0.9997459355112233
0.9997464161210229
0.9997469872009598
0.9997476522343343
0.9997484134596684
0.9997492719500897
0.999750227676375
0.9997512795621744
0.9997524255469441
0.9997536626534781
0.9997549870562619
0.9997563941510119
0.9997578786263591
0.9997594345379427
0.9997610553848523
0.999762734188312
0.9997644635723253
0.999766235845883
0.9997680430861833
0.999769877222245
0.9997717301182427
0.9997735936558388
0.9997754598147992
0.9997773207511662
0.999779168872301
0.9997809969081357
0.999782797978025
0.9997845656526531
0.999786294010509
0.999787977688522
0.9997896119265148
0.9997911926052121
0.9997927162776179
0.9997941801936415
0.9997955823179205
0.9997969213408567
0.99979819668293
0.9997994084924164
0.9998005576366695
0.9998016456871693
0.9998026748985769
0.9998036481820488
0.9998045690731049
0.9998054416943379
0.9998062707132922
0.9998070612958313
0.9998078190553429
0.9998085499981277
0.9998092604653415
0.9998099570718688
0.9998106466425227
0.9998113361459859
0.9998120326269286
0.9998127431367554
0.9998134746634711
0.9998142340611674
0.9998150279796681
0.9998158627948956
0.9998167445405433
0.9998176788416646
0.9998186708508074
0.9998197251873351
0.9998208458805836
0.9998220363175112
0.9998232991954707
0.9998246364807444
0.9998260493734265
0.999827538279221
0.9998291027886637
0.999830741664215
0.9998324528356156
0.9998342334037935
0.9998360796535439
0.9998379870750951
0.9998399503945653
0.9998419636132173
0.9998440200553023
0.9998461124241603
0.9998482328661424
0.999850373041812
0.9998525242037617
0.9998546772803037
0.9998568229641891
0.9998589518054457
0.9998610543073586
0.9998631210245665
0.9998651426622369
0.9998671101752549
0.999869014866395
0.9998708484824774
0.9998726033075781
0.9998742722524608
0.9998758489395206
0.9998773277826939
0.9998787040619967
0.9998799739925099
0.999881134787736
0.9998821847175956
0.9998831231621306
0.9998839506612973
0.9998846689566327
0.9998852810213905
0.9998857910968313
0.999886204744528
0.9998865288014581
0.9998867711270728
0.9998869406309618
0.9998870478663591
0.9998871036381938
0.9998871139618772
0.999887084520197
0.9998870235933394
0.9998869148211351
0.9998867569625111
0.999886557120093
0
0
0.999746056954928
0.999745794530591
0.9997456003228201
0.9997454738735855
0.9997454023460287
0.9997453880789515
0.9997454340286293
0.9997455396172303
0.9997457100400988
0.9997459516895195
0.99974627003499
0.9997466703086384
0.9997471572165153
0.9997477344945592
0.9997484048443025
0.9997491699696284
0.9997500305741222
0.9997509863700507
0.9997520361154277
0.999753177661914
0.9997544080058036
0.999755723343295
0.9997571191305854
0.9997585901480659
0.9997601305681245
0.999761734026355
0.9997633936958659
0.999765102364234
0.9997668525125468
0.999768636395897
0.9997704461246412
0.9997722737456818
0.9997741113230116
0.9997759510167501
0.9997777851599218
0.999779606332254
0.9997814074303034
0.9997831817332855
0.9997849229640425
0.9997866253446465
0.99978828364622
0.9997898932326237
0.999791450097749
0.9997929508962196
0.9997943929673906
0.9997957743525917
0.9997970938056429
0.9997983507967096
0.9997995455096368
0.9998006788329251
0.9998017523445764
0.9998027682910401
0.9998037295605465
0.9998046396511067
0.9998055026335007
0.9998063231095694
0.9998071061661478
0.999807857324983
0.9998085824889937
0.99980928788523
0.9998099800049125
0.9998106655409359
0.9998113513232448
0.9998120442524976
0.9998127512324639
0.9998134791016187
0.9998142345644193
0.9998150241227811
0.9998158540082865
0.9998167301156943
0.9998176579383312
0.9998186425059671
0.9998196883257991
0.9998207993271664
0.9998219788106273
0.999823229402021
0.9998245530121249
0.9998259508024872
0.9998274231579896
0.9998289696666346
0.9998305891070137
0.9998322794438259
0.9998340378317565
0.9998358606279274
0.9998377434130391
0.9998396810212233
0.9998416675785157
0.9998436965497476
0.9998457607935435
0.9998478526249873
0.9998499638854337
0.9998520860188002
0.9998542101536083
0.999856327189932
0.9998584278903412
0.9998605029738571
0.9998625432118957
0.9998645395251322
0.9998664830802172
0.9998683653852756
0.9998701783831552
0.9998719145414424
0.9998735669383494
0.9998751293436581
0.999876596294043
0.9998779631621992
0.9998792262194263
0.9998803826914109
0.9998814308066639
0.9998823698367917
0.9998832001292418
0.9998839231339337
0.9998845414152198
0.999885058630181
0.9998854794922702
0.9998858097778678
0.9998860562196883
0.9998862259797768
0.999886326300286
0.9998863652327067
0.9998863492641044
0.9998862782641232
0.9998861558244607
0.9998859846942469
0.9998857507993159
0.9998854537574643
0
0
0.9997471209791104
0.9997467801600748
0.9997465169207504
0.9997463260001849
0.9997462030944965
0.9997461498284097
0.9997461643061366
0.9997462483420765
0.9997464057743545
0.9997466398853511
0.9997469546009549
0.9997473539838237
0.9997478414793992
0.9997484198145835
0.9997490909776012
0.9997498561253388
0.9997507155347671
0.9997516686079772
0.9997527138918312
0.9997538491039502
0.9997550711686582
0.9997563762617981
0.999757759861859
0.9997592168064142
0.9997607413535486
0.9997623272477837
0.9997639677898981
0.9997656559100104
0.9997673842432764
0.9997691452074696
0.9997709310816848
0.9997727340853676
0.9997745464568537
0.9997763605306197
0.9997781688124521
0.9997799640517852
0.9997817393104965
0.999783488027512
0.999785204078637
0.9997868818311
0.9997885161923821
0.9997901026529763
0.9997916373228022
0.9997931169610929
0.9997945389996339
0.9997959015593121
0.99979720346
0.9997984442238634
0.9997996240722247
0.9998007439161718
0.9998018053411328
0.9998028105856783
0.9998037625148283
0.9998046645881672
0.9998055208230903
0.9998063357535046
0.9998071143843298
0.9998078621421445
0.9998085848223301
0.9998092885330792
0.999809979636629
0.9998106646881111
0.9998113503724023
0.9998120434393855
0.9998127506380465
0.9998134786498534
0.9998142340218797
0.9998150231001673
0.9998158519638375
0.9998167263604933
0.9998176516434676
0.9998186327114944
0.9998196739514025
0.9998207791844297
0.9998219516167707
0.9998231937949541
0.9998245075666473
0.9998258940474543
0.9998273535942439
0.9998288857855059
0.9998304894091672
0.9998321624582579
0.9998339021347158
0.9998357048615591
0.9998375663035466
0.9998394813963508
0.999841444384166
0.999843448865558
0.9998454878472518
0.9998475538054361
0.9998496387540605
0.9998517343194825
0.9998538318207283
0.999855922354537
0.9998579968842722
0.9998600463317213
0.9998620616707441
0.9998640340216963
0.9998659547455391
0.9998678155365346
0.9998696085124624
0.9998713263013188
0.9998729621235253
0.9998745098687574
0.9998759641665864
0.9998773204502025
0.9998785750125075
0.9998797250540359
0.9998807687223323
0.9998817051416999
0.999882534430462
0.9998832577046316
0.9998838770722255
0.9998843956091941
0.9998848172738717
0.9998851467716884
0.9998853895010075
0.9998855514084496
0.9998856381217838
0.9998856543648517
0.9998856052701414
0.9998854935157542
0.9998853174852602
0.9998850793097327
0.9998847744740027
0.9998843974450167
0
0
0.9997481498442338
0.9997477353972263
0.9997474039673087
0.9997471524404357
0.9997469800490414
0.999746884819028
0.9997468658822221
0.999746925136554
0.9997470640943837
0.9997472849871614
0.9997475907259591
0.9997479839947061
0.9997484671307502
0.9997490420470856
0.9997497100431557
0.9997504717019066
0.9997513268601369
0.999752274591741
0.9997533132020022
0.999754440240103
0.9997556525250954
0.9997569461805655
0.9997583166768526
0.999759758880332
0.999761267108865
0.9997628351925417
0.9997644565390015
0.9997661242026173
0.9997678309567727
0.9997695693684251
0.9997713318741264
0.9997731108566472
0.999774898721359
0.9997766879715256
0.9997784712816874
0.9997802415683642
0.9997819920573399
0.9997837163468668
0.9997854084661869
0.999787062928852
0.9997886747804011
0.9997902396400372
0.9997917537360296
0.9997932139346503
0.9997946177625336
0.9997959634224202
0.9997972498023148
0.9997984764781545
0.9997996437101309
0.9998007524328617
0.9998018042396474
0.9998028013610805
0.9998037466382945
0.9998046434911741
0.99980549588184
0.9998063082737585
0.9998070855868124
0.9998078331486829
0.9998085566429014
0.9998092620539248
0.9998099556096017
0.9998106437213974
0.9998113329227637
0.9998120298060408
0.9998127409583037
0.9998134728965744
0.999814232002846
0.999815024459385
0.999815856184799
0.9998167327713863
0.9998176594242885
0.9998186409030089
0.9998196814658614
0.9998207848179265
0.9998219540630988
0.9998231916608155
0.999824499388028
0.9998258783069806
0.9998273287393091
0.9998288502469611
0.9998304416203518
0.9998321008741475
0.9998338252509698
0.9998356112332436
0.9998374545633216
0.9998393502719174
0.9998412927147727
0.9998432756173863
0.9998452921275005
0.9998473348749475
0.9998493960383317
0.9998514674179211
0.9998535405140204
0.9998556066099975
0.9998576568590533
0.999859682373751
0.9998616743172672
0.9998636239952745
0.9998655229473484
0.9998673630367823
0.9998691365376982
0.9998708362183759
0.9998724554197725
0.9998739881282305
0.9998754290414726
0.9998767736270374
0.9998780181723355
0.9998791598253434
0.9998801966249401
0.999881127520356
0.9998819523784985
0.9998826719738919
0.9998832879560673
0.9998838028027791
0.9998842197573306
0.9998845426831499
0.9998847758226674
0.9998849236814876
0.9998849908668737
0.999884981056784
0.9998848969419124
0.9998847414453248
0.9998845142270962
0.9998842135749898
0.9998838389957149
0.9998833874275512
0
0
0.9997491371140154
0.9997486499123913
0.9997482526659718
0.9997479438601593
0.9997477215257894
0.9997475836797046
0.999747530244388
0.9997475615160228
0.9997476781948446
0.999747881910809
0.9997481743579891
0.999748557165627
0.99974903184966
0.999749599555593
0.9997502609103907
0.9997510159607819
0.999751864117441
0.9997528041151071
0.9997538339995842
0.999754951132024
0.9997561522041251
0.9997574332636455
0.9997587897494189
0.999760216534338
0.9997617079751512
0.9997632579682655
0.9997648600107534
0.9997665072657252
0.9997681926312004
0.9997699088116232
0.9997716483911284
0.9997734039076764
0.9997751679271583
0.9997769331166008
0.9997786923156309
0.9997804386053925
0.9997821653741717
0.9997838663790473
0.9997855358029536
0.99978716830663
0.9997887590750036
0.999790303857651
0.9997917990030551
0.9997932414864772
0.9997946289313272
0.9997959596240007
0.9997972325222211
0.9997984472569905
0.9997996041282997
0.999800704094805
0.9998017487577175
0.9998027403391783
0.9998036816554239
0.9998045760850641
0.9998054275328015
0.9998062403889396
0.9998070194850269
0.9998077700459914
0.999808497639109
0.9998092081201757
0.9998099075772313
0.9998106022721943
0.999811298580789
0.9998120029311294
0.9998127217413582
0.99981346135674
0.9998142279866337
0.9998150276417836
0.9998158660723947
0.9998167487074725
0.9998176805959341
0.9998186663500152
0.9998197100915155
0.9998208154014327
0.9998219852735503
0.9998232220725354
0.9998245274971046
0.9998259025487923
0.9998273475068354
0.9998288619096454
0.9998304445432998
0.9998320934374243
0.9998338058687658
0.9998355783726806
0.9998374067626754
0.9998392861580458
0.9998412110195429
0.9998431751929057
0.9998451719599735
0.9998471940969879
0.9998492339395747
0.9998512834537908
0.9998533343125134
0.99985537797636
0.999857405778226
0.9998594090104612
0.9998613790136424
0.9998633072658485
0.9998651854713128
0.9998670056473142
0.9998687602081758
0.9998704420452371
0.9998720446017314
0.9998735619415106
0.9998749888106064
0.999876320690648
0.9998775538432169
0.9998786853442356
0.9998797131070897
0.9998806358927816
0.9998814533062566
0.9998821657782828
0.9998827745258915
0.9998832814808909
0.9998836891992382
0.999884000762933
0.999884219585153
0.9998843490953501
0.9998843926588206
0.9998843534094435
0.9998842332676054
0.999884033518439
0.9998837548384366
0.9998833956344994
0.9998829541680689
0.9998824292303579
0
0
0.9997500731407586
0.9997495154364265
0.9997490550221466
0.9997486902767123
0.9997484184791768
0.9997482382994707
0.9997481490052281
0.9997481501285777
0.9997482420424179
0.9997484254658889
0.9997487011909374
0.9997490701196886
0.9997495330102665
0.9997500903031116
0.9997507420398737
0.9997514877745942
0.9997523265025824
0.9997532566228597
0.9997542759197078
0.9997553815567375
0.999756570084162
0.9997578374580144
0.9997591790690338
0.9997605897799037
0.9997620639699923
0.9997635955866759
0.9997651782023081
0.9997668050759316
0.9997684692188399
0.9997701634630735
0.9997718805319306
0.9997736131115619
0.9997753539227298
0.9997770957918368
0.9997788317203601
0.9997805549518665
0.9997822590358549
0.999783937887723
0.9997855858442437
0.9997871977140129
0.9997887688224145
0.9997902950507449
0.9997917728692127
0.9997931993636366
0.999794572255727
0.9997958899169255
0.9997971513758538
0.9997983563194708
0.9997995050881082
0.9998005986646005
0.9998016386577617
0.9998026272804923
0.9998035673228344
0.9998044621202993
0.9998053155178096
0.9998061318296059
0.9998069157954697
0.9998076725336142
0.9998084074905946
0.999809126388596
0.9998098351704371
0.9998105399426542
0.9998112469170166
0.9998119623508307
0.999812692486414
0.9998134434901105
0.9998142213912581
0.999815032021512
0.9998158809549722
0.9998167734495604
0.9998177143901306
0.9998187082338067
0.9998197589580617
0.9998208700120689
0.9998220442718518
0.999823283999786
0.9998245908089759
0.9998259656330245
0.9998274087017114
0.99982891952302
0.999830496871955
0.999832138786506
0.9998338425710662
0.9998356048075299
0.9998374213742109
0.9998392874726381
0.9998411976621664
0.9998431459022554
0.9998451256021401
0.9998471296775171
0.999849150613755
0.9998511805350186
0.9998532112786043
0.9998552344736767
0.9998572416235069
0.9998592241902344
0.9998611736811122
0.9998630817351335
0.9998649402089099
0.9998667412606491
0.9998684774310664
0.9998701417200855
0.999871727658202
0.9998732293714047
0.9998746416386158
0.9998759599405875
0.999877180499193
0.9998783003060605
0.9998793171396092
0.9998802295690041
0.9998810369425076
0.9998817393588709
0.9998823376226652
0.9998828331763502
0.9998832279933084
0.9998835244503129
0.9998837252082772
0.9998838329902877
0.9998838502718024
0.9998837792991323
0.9998836217626527
0.999883378235452
0.9998830488037522
0.9998826327289835
0.99988212753504
0.9998815319780893
0
0
0.9997509491796258
0.9997503239988682
0.9997498027011967
0.9997493833231742
0.9997490631794607
0.9997488407909284
0.9997487148125084
0.9997486845570339
0.9997487498179423
0.9997489105704215
0.9997491670081894
0.9997495193674264
0.9997499677354516
0.9997505119692586
0.9997511515910589
0.9997518856941808
0.9997527128850204
0.9997536312436548
0.9997546382973311
0.9997557310094657
0.9997569057824691
0.9997581584715799
0.9997594844084567
0.9997608784337079
0.9997623349373138
0.9997638479059204
0.9997654109760835
0.9997670174925604
0.9997686605707135
0.9997703331620783
0.9997720281221505
0.9997737382794368
0.9997754565048362
0.9997771757804316
0.9997788892668158
0.9997805903681165
0.9997822727939513
0.9997839306176052
0.9997855583298104
0.9997871508875802
0.999788703757646
0.9997902129541382
0.9997916750702285
0.9997930873035538
0.9997944474753225
0.9997957540430776
0.9997970061071707
0.999798203411067
0.9997993463356492
0.9998004358877508
0.9998014736831814
0.9998024619245361
0.9998034033741153
0.9998043013222888
0.9998051595516511
0.999805982297327
0.9998067742037755
0.9998075402784552
0.9998082858426859
0.9998090164800759
0.9998097379828362
0.9998104562963375
0.9998111774622482
0.9998119075605988
0.9998126526511226
0.9998134187142406
0.999814211592057
0.9998150369297631
0.9998159001178529
0.9998168062355828
0.9998177599961175
0.9998187656938374
0.9998198271542894
0.9998209476872773
0.9998221300436174
0.9998233763760556
0.9998246882048747
0.9998260663886893
0.9998275111009104
0.9998290218123389
0.9998305972802972
0.9998322355446643
0.9998339339311192
0.9998356890618216
0.9998374968736744
0.9998393526442352
0.9998412510252285
0.9998431860835141
0.9998451513492661
0.9998471398709848
0.9998491442768725
0.9998511568419761
0.9998531695604097
0.9998551742218528
0.9998571624914403
0.9998591259920713
0.9998610563880971
0.9998629454692909
0.9998647852339662
0.999866567970074
0.9998682863331101
0.9998699334196628
0.9998715028354509
0.9998729887567186
0.9998743859838911
0.9998756899864323
0.9998768969378544
0.9998780037397088
0.9998790080333823
0.9998799081987715
0.9998807033384431
0.9998813932441453
0.9998819783438885
0.9998824596327603
0.9998828385812594
0.9998831170022827
0.9998832969063116
0.9998833803827691
0.9998833693595565
0.9998832653825974
0.9998830696342007
0.9998827825850578
0.9998824037802235
0.9998819324488382
0.9998813662753973
0.9998807037288693
0
0
0.9997517575543458
0.9997510679074301
0.9997504879932094
0.9997500157246481
0.999749648369525
0.9997493840677651