# vtk DataFile Version 2.0
2D-ADE data file 
ASCII
DATASET RECTILINEAR_GRID
DIMENSIONS 128 128 1 
X_COORDINATES 128 int
0 1 2 3 4 5 6 7 8 9 10 11 12 13 14 15 16 17 18 19 20 21 22 23 24 25 26 27 28 29 30 31 32 33 34 35 36 37 38 39 40 41 42 43 44 45 46 47 48 49 50 51 52 53 54 55 56 57 58 59 60 61 62 63 64 65 66 67 68 69 70 71 72 73 74 75 76 77 78 79 80 81 82 83 84 85 86 87 88 89 90 91 92 93 94 95 96 97 98 99 100 101 102 103 104 105 106 107 108 109 110 111 112 113 114 115 116 117 118 119 120 121 122 123 124 125 126 127 
Y_COORDINATES 128 int
0 1 2 3 4 5 6 7 8 9 10 11 12 13 14 15 16 17 18 19 20 21 22 23 24 25 26 27 28 29 30 31 32 33 34 35 36 37 38 39 40 41 42 43 44 45 46 47 48 49 50 51 52 53 54 55 56 57 58 59 60 61 62 63 64 65 66 67 68 69 70 71 72 73 74 75 76 77 78 79 80 81 82 83 84 85 86 87 88 89 90 91 92 93 94 95 96 97 98 99 100 101 102 103 104 105 106 107 108 109 110 111 112 113 114 115 116 117 118 119 120 121 122 123 124 125 126 127 
Z_COORDINATES 1 int
0
POINT_DATA 16384
SCALARS density double
LOOKUP_TABLE default
0
0
0
0
0
0
0
0
0
0
0
0
0
0
0
0
0
0
0
0
0
0
0
0
0
0
0
0
0
0
0
0
0
0
0
0
0
0
0
0
0
0
0
0
0
0
0
0
0
0
0
0
0
0
0
0
0
0
0
0
0
0
0
0
0
0
0
0
0
0
0
0
0
0
0
0
0
0
0
0
0
0
0
0
0
0
0
0
0
0
0
0
0
0
0
0
0
0
0
0
0
0
0
0
0
0
0
0
0
0
0
0
0
0
0
0
0
0
0
0
0
0
0
0
0
0
0
0
0
0.999687077367634
0.9996871288074848
0.9996870335633079
0.9996867455562118
0.9996862656506293
0.9996856303749335
0.9996848740614867
0.999684025991745
0.999683112191773
0.999682156042043
0.9996811779569994
0.9996801955980653
0.9996792242162983
0.9996782769573707
0.9996773651083825
0.9996764983235912
0.9996756848278646
0.9996749315966221
0.9996742445139546
0.9996736285122398
0.9996730876954946
0.9996726254483527
0.9996722445322612
0.9996719471703408
0.9996717351220937
0.999671609749011
0.9996715720719422
0.9996716228210284
0.9996717624788466
0.9996719913173994
0.9996723094294535
0.9996727167547433
0.9996732131014541
0.9996737981634112
0.9996744715333357
0.9996752327125247
0.9996760811172801
0.9996770160823965
0.9996780368619977
0.9996791426280106
0.9996803324665325
0.999681605372358
0.9996829602419053
0.9996843958647953
0.9996859109142965
0.9996875039368821
0.9996891733411066
0.999690917386024
0.9996927341693598
0.9996946216156356
0.9996965774644584
0.9996985992591688
0.9997006843360396
0.9997028298142184
0.9997050325865985
0.9997072893117942
0.9997095964073994
0.9997119500446924
0.9997143461449459
0.9997167803774993
0.9997192481597241
0.9997217446590223
0.9997242647969677
0.9997268032556992
0.9997293544866507
0.9997319127216884
0.999734471986716
0.999737026117763
0.9997395687795915
0.9997420934867827
0.9997445936272931
0.9997470624883978
0.9997494932849484
0.9997518791898218
0.99975421336643
0.9997564890031118
0.9997586993492262
0.9997608377527148
0.9997628976989087
0.9997648728502974
0.9997667570869916
0.9997685445475663
0.9997702296699796
0.999771807232233
0.9997732723924515
0.9997746207280438
0.9997758482736119
0.9997769515572972
0.9997779276352458
0.9997787741239075
0.9997794892299107
0.9997800717772661
0.9997805212317188
0.999780837722076
0.9997810220584195
0.9997810757471304
0.9997810010027426
0.9997808007566763
0.9997804786629914
0.999780039101351
0.9997794871774841
0.9997788287214785
0.9997780702843521
0.9997772191333966
0.9997762832468974
0.9997752713088867
0.9997741927046793
0.9997730575179801
0.9997718765304279
0.9997706612244115
0.9997694237899164
0.9997681771359676
0.9997669349069618
0.9997657115041114
0.9997645221084323
0.9997633826990343
0.9997623100565948
0.99976132177514
0.999760436196306
0.9997596721094268
0.999759047815944
0.9997585812564385
0.9997582894038829
0.9997581818315562
0.9997582154403577
0.9997583186149962
0
0
0.9996870244342488
0.999687076270488
0.9996869755213381
0.9996867038072997
0.9996862804123897
0.9996857221264428
0.9996850532572723
0.999684298293535
0.9996834804031076
0.9996826202440239
0.9996817362969274
0.9996808449333237
0.999679960539311
0.9996790956647187
0.9996782612106084
0.9996774666050771
0.9996767199653614
0.9996760282461052
0.9996753973747743
0.9996748323739886
0.9996743374714004
0.9996739161981731
0.9996735714769428
0.9996733057002357
0.9996731208000701
0.9996730183095781
0.9996729994172335
0.9996730650143878
0.9996732157365741
0.9996734519991693
0.9996737740277939
0.9996741818839417
0.9996746754861638
0.9996752546272322
0.9996759189875649
0.9996766681452832
0.9996775015831576
0.9996784186927709
0.9996794187761314
0.9996805010450391
0.9996816646184192
0.999682908517898
0.9996842316618291
0.9996856328580219
0.9996871107953741
0.9996886640346402
0.9996902909985348
0.9996919899613878
0.9996937590385429
0.9996955961757071
0.999697499138437
0.9996994655019589
0.9997014926415015
0.9997035777233273
0.9997057176966386
0.9997079092865246
0.9997101489881248
0.9997124330621545
0.9997147575319595
0.9997171181822238
0.9997195105594864
0.9997219299745641
0.9997243715070173
0.9997268300117288
0.9997293001277079
0.9997317762891499
0.9997342527388371
0.9997367235438742
0.9997391826137974
0.9997416237210137
0.9997440405235672
0.9997464265901341
0.9997487754271986
0.9997510805082672
0.9997533353050129
0.9997555333201634
0.9997576681219783
0.9997597333800696
0.9997617229023765
0.9997636306729997
0.9997654508906703
0.9997671780075225
0.999768806767916
0.9997703322469556
0.999771749888446
0.9997730555419109
0.9997742454984263
0.999775316524904
0.999776265896595
0.9997770914274882
0.9997777914984035
0.9997783650825183
0.9997788117681792
0.9997791317788182
0.9997793259899053
0.9997793959428414
0.9997793438558327
0.999779172631756
0.9997788858631617
0.9997784878345534
0.9997779835222119
0.9997773785918204
0.9997766793942883
0.9997758929601516
0.999775026993049
0.9997740898627527
0.9997730905983209
0.9997720388818647
0.9997709450434531
0.9997698200574889
0.9997686755407857
0.9997675237520566
0.9997663775917981
0.9997652505999444
0.9997641569488415
0.9997631114253246
0.9997621293875981
0.9997612266452712
0.9997604192655214
0.9997597232809301
0.9997591543272243
0.999758725806406
0.9997584461692571
0.9997583139968937
0.999758316672861
0.9997584186116516
0
0
0.9996871182860855
0.9996871761726303
0.9996870754341158
0.9996868182213575
0.9996864296025989
0.9996859219387152
0.9996853159599951
0.9996846320381976
0.9996838898286864
0.9996831074217642
0.9996823014650469
0.9996814869268403
0.9996806771325769
0.999679883858756
0.9996791174577915
0.9996783869772203
0.9996777002823313
0.9996770641755253
0.9996764845088802
0.9996759662882357
0.9996755137687029
0.9996751305418325
0.9996748196145466
0.9996745834803452
0.9996744241831099
0.9996743433741004
0.9996743423624725
0.999674422159883
0.9996745835194829
0.9996748269698112
0.9996751528438474
0.9996755613036936
0.9996760523611079
0.9996766258943129
0.9996772816612807
0.9996780193098683
0.9996788383850056
0.9996797383332616
0.9996807185049781
0.99968177815428
0.9996829164371366
0.9996841324077523
0.9996854250134686
0.9996867930884236
0.9996882353461558
0.9996897503713765
0.9996913366110954
0.9996929923653087
0.9996947157774337
0.9996965048246862
0.9996983573085767
0.9997002708457183
0.9997022428591148
0.9997042705701022
0.9997063509911235
0.9997084809194824
0.9997106569322538
0.9997128753824818
0.9997151323968336
0.9997174238748189
0.9997197454897263
0.9997220926913727
0.9997244607107897
0.9997268445669147
0.9997292390753968
0.99973163885954
0.9997340383634677
0.999736431867497
0.9997388135057692
0.9997411772860743
0.9997435171118895
0.9997458268065094
0.9997481001392516
0.9997503308535645
0.9997525126969697
0.9997546394526271
0.9997567049723979
0.9997587032111536
0.9997606282621618
0.9997624743932558
0.9997642360835832
0.9997659080606037
0.9997674853371126
0.9997689632479314
0.9997703374860347
0.9997716041377467
0.9997727597167745
0.99977380119673
0.9997747260419237
0.9997755322361119
0.9997762183090204
0.9997767833603737
0.9997772270813154
0.99977754977301
0.9997777523623912
0.9997778364149323
0.9997778041444886
0.9997776584201924
0.9997774027705424
0.9997770413847747
0.9997765791117665
0.9997760214566538
0.999775374575511
0.9997746452683627
0.9997738409709367
0.9997729697454708
0.9997720402709795
0.9997710618332357
0.9997700443147179
0.9997689981844544
0.9997679344874991
0.9997668648332435
0.9997658013812875
0.9997647568210356
0.9997637443394832
0.9997627775691482
0.99976187051759
0.999761037431859
0.9997602925537479
0.9997596496413251
0.9997591217474912
0.9997587200529653
0.9997584521184124
0.9997583161201662
0.9997583189421838
0.9997584509284179
0
0
0.9996874056275704
0.9996874474823481
0.9996873316876447
0.9996870738059811
0.999686698362512
0.9996862198836134
0.9996856559623716
0.999685023039979
0.9996843379057764
0.9996836164772351
0.9996828735180926
0.9996821224685857
0.999681375488948
0.999680643469832
0.9996799360861593
0.9996792618758285
0.9996786283311042
0.9996780419898221
0.9996775085247606
0.9996770328296768
0.9996766191004322
0.9996762709104992
0.9996759912803799
0.9996757827411253
0.9996756473918605
0.999675586951702
0.9996756028061202
0.9996756960482063
0.9996758675149575
0.9996761178190341
0.9996764473761233
0.9996768564283403
0.999677345063807
0.9996779132328037
0.9996785607606343
0.9996792873575753
0.9996800926260403
0.9996809760653029
0.9996819370739113
0.999682974950109
0.9996840888903968
0.9996852779865208
0.9996865412210305
0.9996878774616692
0.9996892854547346
0.999690763817663
0.9996923110309724
0.9996939254298021
0.9996956051951826
0.9996973483452658
0.9996991527266433
0.9997010160059702
0.9997029356620298
0.9997049089784241
0.9997069330370466
0.9997090047124931
0.9997111206675623
0.9997132773499888
0.9997154709905562
0.9997176976027061
0.9997199529837811
0.999722232717993
0.9997245321812439
0.9997268465478533
0.9997291707993061
0.9997314997350348
0.9997338279853257
0.9997361500263289
0.9997384601972181
0.9997407527194477
0.9997430217181124
0.9997452612453057
0.9997474653054497
0.9997496278824345
0.9997517429685047
0.9997538045946776
0.9997558068625879
0.9997577439775007
0.999759610282344
0.9997614002924631
0.9997631087309139
0.9997647305639659
0.9997662610366066
0.9997676957076956
0.9997690304845531
0.999770261656617
0.9997713859279619
0.999772400448319
0.9997733028424166
0.9997740912373011
0.9997747642874956
0.999775321197705
0.9997757617429833
0.999776086286119
0.9997762957922409
0.9997763918404738
0.9997763766327167
0.9997762529994787
0.9997760244029218
0.9997756949371328
0.9997752693258745
0.9997747529179094
0.9997741516802168
0.9997734721892614
0.999772721620654
0.9997719077373723
0.9997710388768232
0.9997701239367814
0.9997691723602895
0.9997681941191905
0.999767199695799
0.9997662000612447
0.9997652066487727
0.9997642313194643
0.9997632863169091
0.999762384196246
0.999761537717875
0.9997607596969413
0.9997600628574606
0.9997594594493486
0.9997589607536231
0.999758576073483
0.9997583140496282
0.9997581791969932
0.9997581877335214
0.999758345713002
0
0
0.9996878863599942
0.9996878716632619
0.9996877199672812
0.9996874467682249
0.9996870698099556
0.9996866039145244
0.9996860642737404
0.9996854652307169
0.9996848212362642
0.9996841460180904
0.9996834525151227
0.9996827527184617
0.9996820576040824
0.99968137710053
0.9996807201192496
0.9996800946018826
0.9996795075788755
0.9996789652351827
0.9996784729797412
0.9996780355148951
0.9996776569035125
0.9996773406329833
0.9996770896751705
0.9996769065421479
0.9996767933372616
0.9996767518017251
0.9996767833565717
0.9996768891403134
0.9996770700422398
0.9996773267317749
0.9996776596838762
0.999678069200904
0.9996785554309763
0.9996791183832284
0.9996797579400103
0.9996804738664168
0.9996812658171977
0.9996821333414185
0.999683075884934
0.9996840927910139
0.9996851832991891
0.9996863465426435
0.999687581544224
0.9996888872113667
0.999690262330026
0.9996917055578799
0.9996932154169091
0.9996947902856034
0.9996964283908925
0.9996981278000506
0.9996998864126707
0.9997017019529328
0.999703571962283
0.9997054937927174
0.9997074646007974
0.9997094813425689
0.9997115407695135
0.9997136394256831
0.9997157736461468
0.9997179395568715
0.9997201330761645
0.9997223499177702
0.9997245855957393
0.9997268354311262
0.9997290945606221
0.9997313579471447
0.999733620392461
0.9997358765518307
0.999738120950718
0.999740348003511
0.999742552034268
0.9997447272993779
0.9997468680121184
0.9997489683689468
0.9997510225774734
0.9997530248858981
0.9997549696138186
0.9997568511841487
0.999758664156017
0.999760403258337
0.9997620634238938
0.9997636398236028
0.999765127900764
0.9997665234049402
0.9997678224252775
0.9997690214228863
0.9997701172621
0.9997711072402433
0.9997719891157434
0.999772761134241
0.9997734220525686
0.9997739711602978
0.9997744082987737
0.9997747338773951
0.9997749488871257
0.9997750549110649
0.9997750541321387
0.9997749493378222
0.9997747439220265
0.9997744418841445
0.9997740478254664
0.99977356694301
0.9997730050210495
0.9997723684204098
0.9997716640658167
0.9997708994313442
0.9997700825241711
0.9997692218665298
0.9997683264757977
0.9997674058422087
0.9997664699036725
0.9997655290164285
0.9997645939195807
0.9997636756896975
0.9997627856836044
0.999761935464969
0.9997611367075383
0.9997604010381622
0.9997597398693696
0.9997591641719966
0.9997586843442138
0.9997583094734013
0.9997580489878465
0.9997579112014616
0.9997579109396951
0.9997580595734646
0
0
0.9996885254163155
0.9996884330679247
0.9996882288367073
0.9996879234247515
0.9996875299657992
0.9996870616854173
0.9996865314445781
0.9996859517447316
0.9996853348788469
0.9996846926788296
0.999684036450663
0.9996833767749145
0.9996827234279417
0.9996820853511291
0.9996814706502956
0.9996808866117092
0.999680339737442
0.9996798357918195
0.9996793798529999
0.9996789763669042
0.9996786292014149
0.9996783416996302
0.9996781167307119
0.9996779567379848
0.9996778637835655
0.999677839589596
0.9996778855756747
0.9996780028927641
0.999678192453337
0.9996784549581454
0.999678790919461
0.9996792006812081
0.9996796844358999
0.9996802422387974
0.9996808740192367
0.9996815795895369
0.9996823586514617
0.9996832108006177
0.9996841355287923
0.9996851322245921
0.999686200172388
0.9996873385499196
0.999688546424577
0.9996898227486821
0.9996911663538032
0.9996925759444106
0.9996940500909158
0.9996955872223744
0.9996971856189123
0.9996988434041367
0.9997005585376056
0.9997023288075843
0.9997041518241835
0.9997060250130864
0.9997079456099628
0.9997099106557564
0.9997119169929555
0.999713961263001
0.9997160399049497
0.99971814915552
0.9997202850506322
0.9997224434285475
0.9997246199347061
0.999726810028337
0.9997290089909239
0.9997312119365689
0.9997334138243151
0.9997356094724257
0.9997377935746609
0.9997399607185035
0.9997421054053407
0.9997442220725075
0.9997463051171642
0.9997483489218603
0.9997503478817245
0.9997522964330753
0.9997541890833644
0.9997560204421913
0.9997577852532649
0.9997594784270154
0.9997610950736968
0.999762630536645
0.9997640804255196
0.9997654406491602
0.9997667074478833
0.9997678774248329
0.9997689475762195
0.9997699153200612
0.9997707785232856
0.9997715355268267
0.9997721851686004
0.9997727268040456
0.9997731603241585
0.999773486170757
0.9997737053489703
0.9997738194367525
0.9997738305914896
0.9997737415535679
0.9997735556470478
0.9997732767773743
0.9997729094263438
0.9997724586442989
0.9997719300398239
0.9997713297669223
0.9997706645099467
0.99976994146622
0.999769168326514
0.9997683532531741
0.9997675048558369
0.999766632164135
0.9997657445967755
0.999764851925768
0.9997639642348618
0.9997630918694809
0.9997622453743082
0.9997614354138669
0.9997606726843531
0.9997599678017789
0.9997593311656825
0.9997587727562169
0.9997583021967185
0.9997579285633994
0.9997576613642775
0.9997575102850876
0.9997574873423765
0.999757602483098
0
0
0.9996892901468957
0.9996891086250276
0.9996888385403855
0.999688487043492
0.9996880644418107
0.9996875811324125
0.9996870477099691
0.9996864748318354
0.9996858729521307
0.9996852522460363
0.99968462248228
0.9996839928919763
0.9996833720989114
0.9996827680662851
0.9996821880726662
0.9996816387136144
0.9996811259204079
0.999680654988969
0.9996802306159417
0.9996798569396094
0.9996795375827346
0.9996792756959257
0.9996790739999649
0.9996789348266872
0.9996788601574168
0.9996788516589604
0.9996789107165485
0.9996790384639658
0.9996792358104765
0.9996795034649019
0.9996798419565821
0.9996802516536355
0.9996807327783214
0.9996812854199435
0.9996819095451434
0.9996826050060226
0.9996833715459791
0.9996842088036811
0.9996851163150958
0.9996860935139706
0.9996871397307064
0.9996882541900107
0.9996894360072763
0.9996906841840562
0.9996919976026011
0.9996933750197984
0.9996948150605107
0.9996963162106183
0.9996978768097798
0.999699495044204
0.9997011689394505
0.9997028963535372
0.9997046749703856
0.9997065022938557
0.999708375642417
0.9997102921446805
0.9997122487358571
0.9997142421553277
0.9997162689454081
0.9997183254514602
0.9997204078234376
0.9997225120189862
0.9997246338081798
0.9997267687799832
0.9997289123505103
0.9997310597731291
0.99973320615047
0.999735346448342
0.9997374755115949
0.9997395880818819
0.9997416788173373
0.9997437423140692
0.9997457731294509
0.9997477658070617
0.9997497149032235
0.9997516150149293
0.9997534608090788
0.9997552470527664
0.9997569686444978
0.9997586206460413
0.9997601983147604
0.9997616971360912
0.9997631128559995
0.9997644415130419
0.9997656794698709
0.9997668234437832
0.9997678705361558
0.9997688182603811
0.9997696645681536
0.9997704078737395
0.9997710470761197
0.9997715815786709
0.9997720113063244
0.9997723367199125
0.9997725588277124
0.9997726791939427
0.9997726999443062
0.9997726237683958
0.9997724539191164
0.99977219420901
0.9997718490036965
0.9997714232123613
0.9997709222755328
0.9997703521500938
0.9997697192917662
0.9997690306349518
0.9997682935700907
0.9997675159182565
0.9997667059029426
0.9997658721185069
0.9997650234948726
0.9997641692572775
0.9997633188800216
0.9997624820330483
0.9997616685209493
0.9997608882093652
0.9997601509391951
0.9997594664320603
0.9997588442144054
0.9997582935073749
0.9997578232723263
0.9997574422493964
0.9997571592863386
0.9997569833748892
0.9997569249178765
0.999756991389147
0
0
0.9996901529166377
0.999689875081067
0.9996895296641221
0.9996891219558071
0.9996886595531103
0.9996881503540453
0.9996876029840132
0.9996870262464115
0.9996864289175147
0.999685819638197
0.999685206767424
0.9996845982869139
0.999684001718576
0.9996834240648764
0.999682871778521
0.9996823507520073
0.9996818663212942
0.9996814232816011
0.9996810259116788
0.9996806780037104
0.9996803828961036
0.9996801435080962
0.9996799623744175
0.9996798416795154
0.9996797832901758
0.9996797887865214
0.9996798594906139
0.9996799964928834
0.999680200675848
0.9996804727354764
0.99968081319981
0.9996812224452686
0.999681700710339
0.9996822481071082
0.9996828646303967
0.9996835501649616
0.9996843044905729
0.9996851272854154
0.9996860181276631
0.9996869764956544
0.9996880017665469
0.9996890932138613
0.9996902500038154
0.9996914711908337
0.9996927557121594
0.9996941023819305
0.9996955098846632
0.9996969767684888
0.9996985014381065
0.9997000821477621
0.999701716994252
0.9997034039102313
0.9997051406578376
0.9997069248228962
0.9997087538097279
0.9997106248367975
0.9997125349332456
0.9997144809365103
0.9997164594910897
0.9997184670486274
0.9997204998693734
0.999722554025172
0.9997246254040303
0.9997267097163814
0.999728802503092
0.9997308991452845
0.9997329948760149
0.9997350847938309
0.9997371638782352
0.9997392270070227
0.9997412689754992
0.9997432845174957
0.9997452683281559
0.999747215088358
0.9997491194907115
0.9997509762669411
0.9997527802165627
0.9997545262366051
0.9997562093522612
0.9997578247481651
0.9997593678001496
0.9997608341071508
0.9997622195230853
0.9997635201883367
0.9997647325606758
0.9997658534452208
0.9997668800232811
0.9997678098796778
0.999768641028411
0.9997693719362762
0.9997700015443363
0.9997705292868844
0.9997709551078522
0.9997712794743416
0.999771503387297
0.9997716283890513
0.999771656567832
0.9997715905590202
0.9997714335433178
0.9997711892416641
0.9997708619071312
0.9997704563136632
0.999769977741929
0.9997694319621677
0.9997688252142785
0.9997681641849931
0.9997674559823116
0.999766708106925
0.9997659284206235
0.9997651251111677
0.9997643066534225
0.9997634817660429
0.9997626593630791
0.9997618484990295
0.999761058307782
0.9997602979359365
0.9997595764709948
0.9997589028609994
0.9997582858544892
0.9997577339546531
0.9997572554285651
0.9997568583653939
0.9997565508078398
0.9997563404181927
0.9997562358813717
0.9997562432240368
0
0
0.9996910891576297
0.9996907103584829
0.9996902833640584
0.9996898119796777
0.9996893013203564
0.9996887574379357
0.9996881871300458
0.9996875974841046
0.9996869957537603
0.9996863891705662
0.9996857848061089
0.9996851894764248
0.9996846096576534
0.9996840514290992
0.99968352043582
0.9996830218682101
0.9996825604564286
0.9996821404769275
0.9996817657669504
0.9996814397452239
0.9996811654364042
0.9996809454981836
0.9996807822491639
0.9996806776970766
0.9996806335660812
0.9996806513231206
0.9996807322024235
0.999680877228389
0.9996810872361847
0.9996813628904394
0.9996817047015236
0.9996821130398701
0.9996825881479324
0.9996831301502744
0.9996837390614536
0.9996844147922054
0.9996851571536476
0.9996859658599947
0.999686840529554
0.9996877806844693
0.9996887857490242
0.9996898550469486
0.9996909877975668
0.9996921831112137
0.9996934399837787
0.9996947572907823
0.9996961337808737
0.9996975680691246
0.9996990586300301
0.999700603790576
0.9997022017233024
0.9997038504396901
0.9997055477838322
0.9997072914266932
0.9997090788609251
0.9997109073965272
0.9997127741573371
0.9997146760786026
0.9997166099056476
0.9997185721938392
0.9997205593098863
0.9997225674346455
0.9997245925674595
0.9997266305321721
0.9997286769848462
0.9997307274232796
0.9997327771983389
0.9997348215271655
0.9997368555082488
0.9997388741383791
0.9997408723314487
0.9997428449390535
0.9997447867728526
0.999746692628567
0.9997485573115465
0.9997503756637309
0.9997521425919038
0.999753853097006
0.9997555023043735
0.9997570854946214
0.9997585981350077
0.9997600359109526
0.9997613947575348
0.9997626708905951
0.999763860837277
0.9997649614655949
0.9997659700128773
0.9997668841126646
0.9997677018199311
0.9997684216342213
0.9997690425206042
0.999769563928059
0.999769985805256
0.9997703086133812
0.9997705333360252
0.9997706614858451
0.9997706951080915
0.9997706367807518
0.9997704896114851
0.9997702572311513
0.9997699437841578
0.9997695539154768
0.9997690927545938
0.9997685658962451
0.9997679793782073
0.9997673396559639
0.999766653574462
0.9997659283366849
0.9997651714691634
0.9997643907839989
0.9997635943373032
0.9997627903834987
0.9997619873255595
0.9997611936606323
0.9997604179208184
0.999759668609632
0.999758954138719
0.9997582827646763
0.9997576625350372
0.9997571012545547
0.9997566064686653
0.9997561854361994
0.9997558452743884
0.9997555925088797
0.9997554338720566
0.9997553742563078
0
0
0.999692076665828
0.9996915946464765
0.9996910821333804
0.9996905415782383
0.999689976243554
0.9996893906634848
0.9996887899951301
0.999688179853484
0.9996875661121252
0.9996869547145788
0.9996863515514015
0.9996857623569897
0.9996851926279646
0.9996846475652978
0.9996841320323194
0.9996836505296693
0.9996832071835083
0.9996828057445964
0.9996824495952711
0.9996821417630423
0.9996818849382064
0.999681681494573
0.9996815335114704
0.9996814427967026
0.9996814109090719
0.9996814391805061
0.999681528736759
0.9996816805169687
0.9996818952912828
0.9996821736769741
0.9996825161524235
0.9996829230694707
0.9996833946636275
0.9996839310626839
0.9996845322932871
0.999685198286036
0.9996859288787264
0.9996867238182925
0.9996875827611165
0.9996885052722432
0.9996894908232123
0.9996905387890175
0.9996916484439482
0.9996928189567925
0.9996940493851901
0.99969533866959
0.9996966856266295
0.9996980889423682
0.9996995471652137
0.9997010586989507
0.9997026217957427
0.9997042345494812
0.9997058948893852
0.9997076005741986
0.9997093491869071
0.999711138130301
0.9997129646233224
0.9997148256984967
0.9997167182004024
0.9997186387854482
0.9997205839229261
0.9997225498975738
0.9997245328136216
0.9997265286005201
0.9997285330203252
0.9997305416768876
0.9997325500268324
0.9997345533924095
0.9997365469761995
0.9997385258777032
0.9997404851117733
0.99974241962886
0.9997443243370151
0.9997461941255538
0.9997480238902916
0.9997498085601988
0.9997515431253601
0.9997532226660149
0.9997548423825401
0.9997563976260949
0.9997578839297636
0.9997592970398643
0.9997606329472463
0.9997618879181981
0.9997630585247909
0.9997641416742427
0.9997651346371421
0.999766035074106
0.9997668410607224
0.9997675511103732
0.9997681641948171
0.9997686797621457
0.9997690977520541
0.9997694186080767
0.9997696432867849
0.999769773263651
0.9997698105356569
0.9997697576203871
0.9997696175517727
0.9997693938722706
0.999769090621711
0.9997687123226373
0.9997682639624133
0.9997677509719421
0.9997671792012846
0.9997665548919973
0.9997658846464613
0.9997651753939543
0.9997644343536652
0.9997636689943409
0.9997628869907217
0.9997620961763327
0.9997613044927842
0.9997605199356193
0.9997597504974646
0.9997590041084204
0.9997582885764196
0.9997576115309913
0.9997569803717316
0.9997564022251432
0.9997558839214313
0.999755431909243
0.9997550523102046
0.9997547506674493
0.9997545320619324
0.9997544002631746
0
0
0.9996930958444623
0.9996925099966841
0.9996919096192933
0.999691296089427
0.9996906713285388
0.9996900385426312
0.9996894015239352
0.9996887646178488
0.999688132458506
0.999687509832444
0.9996869015526783
0.9996863123562955
0.9996857468264979
0.9996852093340493
0.9996847039941879
0.9996842346388636
0.9996838048003887
0.9996834177054474
0.9996830762767166
0.9996827831409205
0.9996825406409017
0.9996823508511242
0.9996822155947429
0.9996821364620202
0.9996821148286444
0.9996821518740726
0.9996822485987807
0.9996824058407489
0.9996826242903071
0.9996829045038016
0.9996832469153724
0.999683651847382
0.9996841195188969
0.999684650052812
0.99968524348109
0.9996858997487256
0.9996866187159757
0.9996874001594527
0.9996882437716752
0.99968914915966
0.9996901158421966
0.9996911432463582
0.9996922307029334
0.9996933774413128
0.9996945825835398
0.9996958451380408
0.9996971639927755
0.9996985379082954
0.9996999655104845
0.9997014452834357
0.9997029755622805
0.9997045545263905
0.9997061801927962
0.9997078504102169
0.9997095628535758
0.9997113150193665
0.9997131042217633
0.9997149275898175
0.999716782065656
0.99971866440398
0.9997205711728137
0.9997224987557498
0.9997244433556622
0.9997264010000915
0.9997283675482707
0.9997303386999639
0.9997323100060743
0.9997342768811485
0.9997362346177188
0.9997381784025606
0.9997401033347915
0.9997420044458143
0.9997438767210285
0.9997457151232378
0.999747514617646
0.999749270198314
0.9997509769159376
0.9997526299067471
0.9997542244223703
0.9997557558603928
0.99975721979543
0.9997586120103954
0.9997599285277637
0.9997611656404609
0.999762319942181
0.9997633883567261
0.9997643681661827
0.9997652570375064
0.9997660530473584
0.9997667547047652
0.999767360971485
0.9997678712796682
0.999768285546755
0.9997686041872286
0.9997688281212371
0.9997689587797465
0.9997689981063179
0.9997689485552216
0.9997688130860588
0.9997685951546584
0.9997682987004896
0.999767928130401
0.9997674882989758
0.9997669844853474
0.9997664223667916
0.9997658079889266
0.9997651477328486
0.9997644482789994
0.9997637165680754
0.9997629597587129
0.9997621851822706
0.999761400294523
0.9997606126246048
0.9997598297211262
0.9997590590964688
0.9997583081698744
0.999757584210395
0.9997568942817068
0.9997562451901212
0.9997556434290806
0.9997550951397756
0.9997546060354268
0.9997541813301501
0.9997538256408894
0.9997535428060135
0.999753335618678
0
0
0.9996941294395281
0.9996934402074019
0.9996927508165773
0.9996920618579713
0.9996913742170787
0.9996906899976665
0.9996900118744747
0.9996893430816928
0.9996886871656994
0.9996880478814336
0.9996874290630129
0.9996868345326617
0.999686268025916
0.9996857331344288
0.9996852332633053
0.9996847716019378
0.999684351105164
0.9996839744840933
0.9996836442038264
0.9996833624873301
0.9996831313232314
0.999682952477144
0.9996828275046394
0.9996827577658266
0.9996827444400375
0.9996827885408498
0.9996828909302421
0.9996830523323
0.9996832733454879
0.9996835544540388
0.9996838960376326
0.9996842983799874
0.9996847616756535
0.9996852860356731
0.9996858714914801
0.9996865179977158
0.9996872254334023
0.9996879936021443
0.9996888222308579
0.9996897109676764
0.9996906593785845
0.9996916669434046
0.9996927330507305
0.9996938569924037
0.9996950379571706
0.9996962750240865
0.9996975671553372
0.9996989131890218
0.999700311831604
0.9997017616505398
0.9997032610668266
0.9997048083479606
0.9997064016010716
0.999708038766692
0.9997097176129718
0.9997114357307572
0.9997131905293765
0.999714979233518
0.999716798881074
0.9997186463222997
0.999720518220174
0.9997224110522887
0.999724321114158
0.9997262445242308
0.9997281772305198
0.9997301150190653
0.9997320535241626
0.9997339882405117
0.9997359145372133
0.9997378276737114
0.9997397228175928
0.9997415950642782
0.9997434394584966
0.9997452510175109
0.9997470247559571
0.9997487557121983
0.999750438976028
0.9997520697175497
0.9997536432170466
0.9997551548955933
0.9997566003462077
0.9997579753652288
0.9997592759837046
0.9997604984984265
0.9997616395023879
0.9997626959142645
0.9997636650067098
0.9997645444330333
0.9997653322520867
0.9997660269509231
0.9997666274650869
0.9997671331961293
0.9997675440262562
0.9997678603297301
0.9997680829810249
0.9997682133593758
0.9997682533498211
0.9997682053404269
0.999768072215876
0.9997678573471632
0.9997675645776664
0.9997671982053729
0.9997667629616007
0.999766263986033
0.9997657067984419
0.9997650972669379
0.9997644415731378
0.9997637461740881
0.9997630177613478
0.9997622632170599
0.9997614895674255
0.9997607039334636
0.9997599134796319
0.9997591253603021
0.9997583466648206
0.999757584361682
0.9997568452426209
0.9997561358665547
0.9997554625053443
0.9997548310848872
0.9997542471219962
0.999753715665382
0.999753241173688
0.9997528274548086
0.999752477393001
0.9997521930406574
0
0
0.9996951621666679
0.9996943706688297
0.9996935920019685
0.9996928261678758
0.9996920732360379
0.9996913344277623
0.9996906114822045