# vtk DataFile Version 2.0
2D-ADE data file 
ASCII
DATASET RECTILINEAR_GRID
DIMENSIONS 128 128 1 
X_COORDINATES 128 int
0 1 2 3 4 5 6 7 8 9 10 11 12 13 14 15 16 17 18 19 20 21 22 23 24 25 26 27 28 29 30 31 32 33 34 35 36 37 38 39 40 41 42 43 44 45 46 47 48 49 50 51 52 53 54 55 56 57 58 59 60 61 62 63 64 65 66 67 68 69 70 71 72 73 74 75 76 77 78 79 80 81 82 83 84 85 86 87 88 89 90 91 92 93 94 95 96 97 98 99 100 101 102 103 104 105 106 107 108 109 110 111 112 113 114 115 116 117 118 119 120 121 122 123 124 125 126 127 
Y_COORDINATES 128 int
0 1 2 3 4 5 6 7 8 9 10 11 12 13 14 15 16 17 18 19 20 21 22 23 24 25 26 27 28 29 30 31 32 33 34 35 36 37 38 39 40 41 42 43 44 45 46 47 48 49 50 51 52 53 54 55 56 57 58 59 60 61 62 63 64 65 66 67 68 69 70 71 72 73 74 75 76 77 78 79 80 81 82 83 84 85 86 87 88 89 90 91 92 93 94 95 96 97 98 99 100 101 102 103 104 105 106 107 108 109 110 111 112 113 114 115 116 117 118 119 120 121 122 123 124 125 126 127 
Z_COORDINATES 1 int
0
POINT_DATA 16384
SCALARS density double
LOOKUP_TABLE default
0
0
0
0
0
0
0
0
0
0
0
0
0
0
0
0
0
0
0
0
0
0
0
0
0
0
0
0
0
0
0
0
0
0
0
0
0
0
0
0
0
0
0
0
0
0
0
0
0
0
0
0
0
0
0
0
0
0
0
0
0
0
0
0
0
0
0
0
0
0
0
0
0
0
0
0
0
0
0
0
0
0
0
0
0
0
0
0
0
0
0
0
0
0
0
0
0
0
0
0
0
0
0
0
0
0
0
0
0
0
0
0
0
0
0
0
0
0
0
0
0
0
0
0
0
0
0
0
0
0.9996869176452878
0.999686976298218
0.9996868833966484
0.9996865877653448
0.9996860871127529
0.9996854187882499
0.9996846184930152
0.9996837168965035
0.9996827413788315
0.9996817166462776
0.9996806643402508
0.9996796032296962
0.9996785495528919
0.9996775173287386
0.9996765186103188
0.9996755637191613
0.9996746614580228
0.9996738193003283
0.9996730435575485
0.999672339527693
0.9996717116270581
0.999671163507043
0.9996706981575764
0.999670317998581
0.999670024960652
0.9996698205559892
0.9996697059404694
0.9996696819676592
0.9996697492354507
0.9996699081259547
0.9996701588392031
0.9996705014211879
0.9996709357866909
0.9996714617373528
0.9996720789753835
0.999672787113297
0.9996735856800348
0.9996744741238165
0.9996754518120486
0.9996765180286054
0.9996776719687805
0.9996789127322055
0.9996802393140103
0.9996816505945033
0.9996831453276368
0.9996847221285149
0.9996863794601927
0.9996881156200209
0.9996899287257721
0.9996918167017831
0.9996937772653494
0.9996958079135926
0.999697905911024
0.9997000682780188
0.99970229178041
0.9997045729204045
0.9997069079290137
0.9997092927601938
0.9997117230868635
0.9997141942989709
0.9997167015037685
0.9997192395284286
0.9997218029251393
0.9997243859787749
0.9997269827172501
0.9997295869246156
0.9997321921569549
0.9997347917610991
0.9997373788961718
0.999739946557927
0.9997424876058361
0.999744994792832
0.9997474607976066
0.99974987825931
0.9997522398144844
0.9997545381360241
0.9997567659739331
0.9997589161976144
0.9997609818394081
0.9997629561390613
0.9997648325888046
0.999766604978675
0.9997682674417316
0.9997698144987783
0.9997712411022253
0.9997725426787007
0.9997737151700491
0.9997747550723469
0.9997756594726006
0.9997764260827984
0.9997770532710397
0.9997775400894758
0.9997778862988684
0.9997780923895893
0.9997781595989697
0.9997780899249398
0.9997778861359872
0.9997775517775096
0.9997770911747302
0.9997765094323958
0.9997758124315844
0.9997750068239949
0.9997741000242
0.999773100200398
0.9997720162642902
0.9997708578607658
0.9997696353581436
0.9997683598397447
0.9997670430975923
0.9997656976289899
0.9997643366365417
0.9997629740319246
0.9997616244432865
0.999760303225905
0.9997590264713714
0.9997578110077469
0.9997566743785602
0.9997556348227593
0.9997547111548735
0.9997539223793427
0.999753286619114
0.999752821190524
0.9997525416221656
0.9997524542534019
0.9997525073351659
0.9997526222444836
0
0
0.9996868569928075
0.9996869161986098
0.999686815661624
0.9996865345034449
0.9996860911824312
0.9996855024787402
0.9996847933882814
0.9996839894182762
0.99968311487366
0.9996821915240477
0.9996812389071525
0.999680274376286
0.9996793132125918
0.9996783687696201
0.9996774526630646
0.9996765749514533
0.9996757443044905
0.9996749681582566
0.9996742528579003
0.9996736037872507
0.9996730254857864
0.9996725217538704
0.9996720957470595
0.9996717500603965
0.9996714868033855
0.9996713076664502
0.9996712139794808
0.9996712067631381
0.9996712867734144
0.9996714545400288
0.9996717103990731
0.9996720545204071
0.9996724869301636
0.9996730075288036
0.9996736161050371
0.9996743123460085
0.9996750958440288
0.9996759661002195
0.9996769225253288
0.9996779644380528
0.9996790910611093
0.9996803015153701
0.9996815948122932
0.9996829698449304
0.9996844253777514
0.9996859600355413
0.9996875722916004
0.9996892604554894
0.9996910226605514
0.9996928568514267
0.9996947607717952
0.9996967319525474
0.9996987677006082
0.9997008650886068
0.9997030209456053
0.9997052318490656
0.9997074941182528
0.999709803809243
0.9997121567117148
0.9997145483476693
0.9997169739722436
0.9997194285767315
0.9997219068939528
0.9997244034060494
0.9997269123548234
0.9997294277546512
0.9997319434080542
0.9997344529239077
0.9997369497383339
0.9997394271382033
0.9997418782872356
0.9997442962545791
0.9997466740457965
0.9997490046360827
0.9997512810055823
0.9997534961765754
0.9997556432523501
0.9997577154574676
0.999759706179189
0.9997616090097282
0.9997634177890521
0.9997651266478599
0.9997667300504319
0.9997682228369577
0.9997696002650207
0.999770858049848
0.9997719924030111
0.9997730000691956
0.9997738783607614
0.9997746251897505
0.999775239097113
0.9997757192788742
0.999776065609086
0.9997762786593664
0.9997763597149744
0.9997763107873219
0.9997761346229795
0.9997758347092075
0.9997754152761783
0.9997748812960638
0.9997742384792785
0.9997734932681723
0.9997726528286033
0.9997717250397812
0.9997707184829218
0.999769642429176
0.9997685068274018
0.9997673222922355
0.9997661000929043
0.9997648521429958
0.9997635909912151
0.9997623298125443
0.9997610823983271
0.999759863142024
0.9997586870173482
0.9997575695411434
0.9997565267037851
0.9997555748120284
0.999754730245868
0.9997540091044853
0.9997534267264655
0.9997529956538753
0.999752722585251
0.9997526035584757
0.9997526209012088
0.9997527349622425
0
0
0.9996869481983784
0.9996870157122314
0.9996869151813965
0.9996866481374967
0.999686240297171
0.9996857039496345
0.9996850604210425
0.9996843309181741
0.9996835360270798
0.9996826947720716
0.9996818247203934
0.9996809417102285
0.9996800598710506
0.9996791917111321
0.9996783482418742
0.9996775390986614
0.9996767726671791
0.999676056207718
0.9996753959733538
0.999674797319902
0.9996742648073343
0.9996738022927131
0.9996734130146456
0.9996730996696738
0.9996728644808726
0.9996727092592139
0.9996726354580042
0.999672644220956
0.999672736424182
0.9996729127126354
0.9996731735312749
0.9996735191514173
0.9996739496925438
0.9996744651399787
0.9996750653586903
0.9996757501035934
0.9996765190265899
0.9996773716806986
0.9996783075214966
0.9996793259061962
0.9996804260905774
0.9996816072240664
0.9996828683431835
0.9996842083636316
0.9996856260712341
0.9996871201119828
0.9996886889814042
0.9996903310134815
0.999692044369342
0.9996938270259328
0.9996956767648909
0.9996975911618131
0.9996995675761327
0.999701603141792
0.999703694758911
0.9997058390866214
0.9997080325372697
0.9997102712721226
0.9997125511987784
0.999714867970395
0.9997172169869101
0.9997195933983505
0.9997219921103727
0.9997244077921034
0.9997268348863944
0.999729267622516
0.9997317000313742
0.9997341259632256
0.9997365391079367
0.9997389330177098
0.9997413011322748
0.9997436368064162
0.9997459333397802
0.9997481840087802
0.9997503821004855
0.9997525209482586
0.9997545939689805
0.9997565947015663
0.999758516846567
0.999760354306517
0.9997621012267831
0.9997637520365388
0.9997653014895886
0.9997667447046545
0.9997680772048317
0.9997692949558207
0.9997703944026582
0.9997713725045603
0.9997722267676333
0.999772955275106
0.9997735567148811
0.9997740304041225
0.9997743763107462
0.9997745950716057
0.999774688007336
0.9997746571337324
0.999774505169736
0.9997742355420133
0.9997738523863022
0.9997733605456283
0.9997727655656751
0.9997720736875138
0.9997712918380653
0.9997704276185875
0.9997694892916067
0.9997684857666096
0.9997674265848815
0.9997663219036985
0.9997651824800591
0.9997640196537411
0.9997628453292424
0.9997616719555319
0.9997605125019249
0.9997593804256066
0.999758289624435
0.9997572543661969
0.9997562891944393
0.9997554087596935
0.9997546275264979
0.9997539592389969
0.9997534166425525
0.9997530102016783
0.9997527460364726
0.9997526203040327
0.999752637953611
0.999752787300986
0
0
0.9996872431976966
0.9996872964230649
0.9996871810787836
0.9996869132651467
0.9996865187957752
0.9996860125808431
0.9996854128840639
0.9996847368277674
0.9996840019881658
0.9996832250976981
0.9996824217244269
0.9996816060736866
0.9996807910226666
0.9996799881228383
0.9996792076501426
0.9996784586834415
0.9996777491981194
0.9996770861606916
0.9996764756223812
0.9996759228098182
0.9996754322110502
0.9996750076559394
0.999674652390347
0.9996743691441926
0.999674160193233
0.9996740274148875
0.9996739723381455
0.9996739961879781
0.9996740999243785
0.9996742842764657
0.9996745497718033
0.9996748967613682
0.9996753254403234
0.9996758358650055
0.9996764279662936
0.9996771015597402
0.9996778563526275
0.9996786919483122
0.999679607848017
0.9996806034504093
0.9996816780491269
0.9996828308285648
0.9996840608580903
0.9996853670849739
0.9996867483262104
0.9996882032594894
0.9996897304135045
0.9996913281578304
0.9996929946925657
0.9996947280379553
0.999696526024184
0.9996983862815438
0.9997003062311709
0.9997022830765272
0.999704313795827
0.9997063951355667
0.9997085236053479
0.9997106954741359
0.9997129067681317
0.9997151532703747
0.9997174305222454
0.9997197338269499
0.9997220582551402
0.999724398652719
0.9997267496509525
0.9997291056789045
0.999731460978283
0.9997338096206619
0.999736145527141
0.9997384624903461
0.999740754198793
0.999743014263467
0.999745236246584
0.9997474136923407
0.9997495401595599
0.9997516092559916
0.9997536146741189
0.9997555502281851
0.9997574098922428
0.9997591878388943
0.99976087847849
0.9997624764984241
0.9997639769022582
0.9997653750482968
0.9997666666873434
0.999767847999239
0.9997689156279338
0.9997698667147038
0.9997706989292866
0.9997714104985879
0.9997720002327789
0.9997724675484871
0.9997728124889703
0.9997730357410485
0.9997731386487637
0.999773123223636
0.9997729921515686
0.9997727487963775
0.9997723972000959
0.9997719420801127
0.9997713888234061
0.9997707434780035
0.9997700127419976
0.9997692039503052
0.999768325059516
0.9997673846309963
0.9997663918125127
0.999765356318374
0.999764288408093
0.9997631988631541
0.9997620989611888
0.9997610004458745
0.9997599154905351
0.9997588566525226
0.9997578368142078
0.9997568690947642
0.9997559667226281
0.9997551428605941
0.999754410430436
0.9997537816809151
0.9997532676365513
0.9997528770693459
0.9997526178630133
0.9997524934319149
0.9997525198367586
0.9997527022639223
0
0
0.9996877449806022
0.9996877406982112
0.99968758853921
0.9996873049114361
0.9996869087287227
0.9996864154789841
0.9996858410730639
0.99968520050786
0.9996845089478965
0.999683780835008
0.9996830298115716
0.9996822685450214
0.9996815086499802
0.9996807606472204
0.9996800339907643
0.9996793371144115
0.9996786774913217
0.9996780617019395
0.9996774955066577
0.9996769839189785
0.9996765312766633
0.9996761413098582
0.9996758172051549
0.9996755616652913
0.999675376963969
0.9996752649959337
0.9996752273221093
0.9996752652100969
0.9996753796699838
0.999675571485838
0.9996758412429074
0.9996761893509274
0.9996766160635886
0.9996771214945703
0.9996777056302154
0.9996783683392299
0.9996791093795059
0.9996799284024337
0.9996808249548018
0.9996817984786371
0.9996828483090956
0.9996839736707235
0.9996851736722167
0.9996864472999757
0.9996877934105864
0.9996892107225079
0.9996906978071055
0.9996922530792864
0.9996938747878878
0.9996955610060533
0.9996973096217532
0.9996991183286635
0.9997009846175708
0.999702905768496
0.9997048788436961
0.9997069006817301
0.9997089678927449
0.9997110768551348
0.9997132237137365
0.999715404379683
0.9997176145320659
0.9997198496215025
0.9997221048757409
0.9997243753073652
0.9997266557237077
0.9997289407389952
0.999731224788805
0.9997335021468089
0.9997357669438554
0.9997380131893054
0.9997402347946361
0.9997424255991818
0.9997445793979699
0.9997466899714682
0.9997487511171593
0.9997507566826962
0.9997527006005178
0.9997545769236148
0.9997563798622878
0.9997581038215476
0.9997597434389562
0.999761293622528
0.999762749588461
0.9997641068983038
0.9997653614953118
0.9997665097395921
0.9997675484418035
0.9997684748950145
0.999769286904524
0.9997699828152711
0.9997705615366785
0.9997710225646212
0.9997713660004202
0.9997715925666171
0.9997717036195097
0.999771701158292
0.9997715878308572
0.9997713669361957
0.9997710424235429
0.9997706188882838
0.999770101564855
0.9997694963167163
0.9997688096236852
0.9997680485667352
0.9997672208105436
0.999766334583852
0.9997653986578177
0.9997644223222286
0.9997634153594605
0.9997623880155851
0.9997613509679858
0.9997603152880549
0.9997592923967331
0.9997582940088238
0.9997573320640665
0.9997564186401687
0.9997555658396593
0.9997547856127367
0.9997540895720921
0.9997534887474927
0.9997529934389061
0.9997526124487671
0.9997523549385157
0.9997522288380107
0.999752249470789
0.9997524283496175
0
0
0.9996884177598245
0.9996883330050519
0.9996881262799313
0.9996878090893727
0.9996873955441918
0.9996868996323854
0.9996863349328958
0.9996857145948702
0.9996850515611434
0.9996843582979802
0.9996836467352189
0.999682928052207
0.999682212590785
0.9996815098191567
0.9996808283285805
0.999680175847972
0.9996795592796244
0.9996789847472912
0.9996784576502437
0.9996779827201933
0.9996775640788471
0.999677205294665
0.9996769094372571
0.9996766791289421
0.9996765165926904
0.9996764236964523
0.9996764019934365
0.9996764527585739
0.9996765770209276
0.9996767755923998
0.9996770490926085
0.9996773979703296
0.9996778225214448
0.9996783229038039
0.9996788991489816
0.9996795511713328
0.9996802787743586
0.9996810816547685
0.9996819594042721
0.9996829115094688
0.9996839373498849
0.9996850361945072
0.9996862071968723
0.999687449389043
0.9996887616745473
0.9996901428205827
0.9996915914495766
0.9996931060303867
0.9996946848692444
0.9996963261006975
0.9996980276786729
0.9996997873678923
0.9997016027357692
0.999703471145002
0.9997053897469961
0.9997073554763037
0.9997093650462263
0.9997114149457373
0.9997135014378687
0.9997156205596952
0.9997177681240514
0.9997199397230857
0.9997221307337709
0.9997243363254431
0.9997265514694699
0.9997287709510732
0.9997309893833889
0.9997332012237388
0.9997354007921666
0.9997375822921581
0.9997397398335661
0.9997418674576003
0.99974395916386
0.9997460089392219
0.9997480107885017
0.9997499587666572
0.9997518470124028
0.9997536697829502
0.9997554214897055
0.9997570967345882
0.9997586903467731
0.9997601974194749
0.9997616133465671
0.9997629338586195
0.9997641550581368
0.9997652734535862
0.999766285991989
0.9997671900896803
0.999767983661045
0.9997686651448502
0.9997692335280259
0.9997696883665782
0.9997700298035309
0.9997702585836432
0.9997703760648889
0.9997703842265039
0.999770285673676
0.9997700836387672
0.999769781979224
0.9997693851721342
0.999768898305666
0.9997683270673978
0.9997676777298186
0.9997669571330235
0.9997661726648653
0.9997653322385334
0.9997644442677075
0.9997635176390746
0.9997625616821095
0.9997615861354817
0.9997606011093667
0.999759617042407
0.9997586446522388
0.9997576948767227
0.9997567788018378
0.9997559075718053
0.9997550922906796
0.999754343898985
0.9997536730268072
0.9997530897835908
0.9997526038475552
0.9997522242697011
0.9997519606255029
0.9997518227037977
0.9997518231676086
0.9997519725034302
0
0
0.9996892276794993
0.9996890496892936
0.9996887740275622
0.9996884084731069
0.9996879642056123
0.9996874523295839
0.9996868841077541
0.9996862708154682
0.9996856235010212
0.99968495291126
0.9996842693683091
0.9996835826309509
0.9996829018215319
0.999682235368698
0.9996815909807915
0.9996809756464152
0.9996803956535144
0.99967985661953
0.9996793635294351
0.9996789207791438
0.9996785322211905
0.9996782012111053
0.9996779306528255
0.9996777230426028
0.9996775805103717
0.9996775048584868
0.9996774975972132
0.999677559977143
0.9996776930181549
0.999677897535238
0.999678174160924
0.9996785233647216
0.9996789454693894
0.9996794406644542
0.9996800090168791
0.9996806504792889
0.9996813648956964
0.9996821520051246
0.9996830114431016
0.9996839427414087
0.999684945326077
0.9996860185139974
0.9996871615081551
0.9996883733918391
0.9996896531218525
0.9996909995210449
0.9996924112702236
0.9996938868997327
0.9996954247807761
0.9996970231167515
0.9996986799346841
0.9997003930770092
0.9997021601938001
0.9997039787356735
0.9997058459474735
0.9997077588629475
0.9997097143005191
0.9997117088603475
0.9997137389227836
0.9997158006483725
0.9997178899795278
0.9997200026439816
0.999722134160131
0.9997242798443492
0.9997264348203645
0.9997285940307388
0.9997307522505171
0.9997329041030397
0.9997350440779605
0.9997371665514052
0.9997392658082781
0.9997413360666022
0.9997433715038556
0.9997453662851297
0.9997473145930357
0.9997492106591176
0.9997510487966669
0.999752823434633
0.9997545291524881
0.9997561607156937
0.9997577131115893
0.999759181585319
0.9997605616755864
0.9997618492498297
0.999763040538602
0.9997641321687322
0.9997651211950607
0.9997660051303343
0.9997667819730783
0.9997674502330535
0.9997680089541603
0.999768457734449
0.9997687967431419
0.999769026734399
0.9997691490578071
0.9997691656653802
0.9997690791151458
0.9997688925711748
0.999768609800206
0.999768235164793
0.9997677736131958
0.9997672306659866
0.9997666123996323
0.9997659254270324
0.9997651768752619
0.9997643743604382
0.9997635259598623
0.9997626401811833
0.9997617259285106
0.9997607924649546
0.999759849371143
0.9997589064984957
0.9997579739161941
0.9997570618507712
0.9997561806179907
0.9997553405418885
0.99975455186248
0.9997538246366834
0.9997531686630544
0.9997525933721236
0.9997521079041213
0.9997517211667907
0.9997514422696525
0.9997512805656745
0.9997512472177389
0.9997513502797656
0
0
0.9996901458785392
0.9996898665856444
0.9996895116096526
0.9996890867697094
0.9996886004181176
0.9996880610618741
0.9996874779332752
0.9996868603994064
0.9996862177725022
0.9996855592043556
0.999684893541982
0.9996842292302434
0.9996835742273867
0.9996829359425754
0.9996823212041299
0.9996817362485397
0.9996811867244338
0.9996806777094166
0.999680213736047
0.9996797988238848
0.9996794365147437
0.9996791299099119
0.9996788817075289
0.9996786942394809
0.9996785695066235
0.9996785092122275
0.9996785147928515
0.9996785874468191
0.999678728159759
0.9996789377275273
0.9996792167761458
0.9996795657791443
0.9996799850720506
0.9996804748644506
0.9996810352494261
0.9996816662108119
0.9996823676281206
0.9996831392795765
0.9996839808431437
0.9996848918959702
0.9996858719121717
0.9996869202593524
0.9996880361938122
0.9996892188548195
0.9996904672579171
0.9996917802876218
0.9996931566895075
0.9996945950620039
0.9996960938479282
0.999697651326049
0.9996992656027314
0.9997009346039294
0.9997026560675906
0.9997044275367266
0.9997062463532171
0.9997081096525827
0.9997100143598014
0.9997119571863805
0.999713934628767
0.999715942968273
0.9997179782726032
0.9997200363991298
0.9997221129999987
0.9997242035291655
0.9997263032514403
0.9997284072535997
0.9997305104576202
0.9997326076360403
0.9997346934294885
0.9997367623663252
0.9997388088844021
0.9997408273548319
0.9997428121077353
0.999744757459793
0.9997466577435334
0.9997485073381258
0.9997503007015558
0.999752032403909
0.9997536971615985
0.9997552898722034
0.9997568056497252
0.9997582398598925
0.9997595881552883
0.9997608465099105
0.9997620112529239
0.9997630791012022
0.9997640471904317
0.9997649131043627
0.9997656749020271
0.9997663311425147
0.9997668809071698
0.9997673238188525
0.9997676600581776
0.9997678903764289
0.99976801610514
0.9997680391621068
0.9997679620538985
0.999767787874701
0.9997675203016494
0.9997671635865355
0.9997667225441161
0.999766202536962
0.9997656094571005
0.9997649497044067
0.9997642301619879
0.9997634581684656
0.9997626414873257
0.999761788273118
0.9997609070344932
0.9997600065936046
0.9997590960416733
0.999758184690083
0.9997572820163836
0.9997563976038752
0.9997555410755544
0.9997547220232531
0.9997539499330317
0.9997532341039698
0.9997525835943192
0.9997520071847301
0.9997515134144982
0.9997511106669184
0.9997508073682744
0.9997506116384035
0.9997505329807618
0.9997505779967149
0
0
0.9996911465716718
0.9996907605672595
0.9996903193056615
0.9996898270413948
0.9996892895065124
0.9996887132763063
0.9996881056822337
0.9996874743065002
0.9996868268767137
0.9996861710738569
0.9996855143956278
0.9996848640601342
0.9996842269203837
0.9996836094060013
0.9996830174851272
0.9996824566437404
0.999681931880534
0.9996814477145077
0.9996810082010276
0.9996806169544271
0.999680277174647
0.9996799916766715
0.9996797629208175
0.9996795930433383
0.9996794838860483
0.999679437024863
0.9996794537963373
0.9996795353223757
0.9996796825324615
0.9996798961837323
0.9996801768784264
0.9996805250791093
0.9996809411213222
0.9996814252241047
0.9996819774981085
0.9996825979517723
0.9996832864953298
0.9996840429431205
0.9996848670140154
0.9996857583304153
0.9996867164156766
0.9996877406903911
0.9996888304674147
0.9996899849460474
0.9996912032052871
0.9996924841965329
0.9996938267356918
0.9996952294950393
0.9996966909948078
0.9996982095948316
0.9996997834862511
0.9997014106835709
0.9997030890170985
0.9997048161260427
0.9997065894523038
0.999708406235214
0.9997102635072784
0.9997121580911463
0.9997140865978688
0.9997160454266478
0.999718030766137
0.999720038597461
0.9997220646990183
0.9997241046531935
0.9997261538550308
0.9997282075229573
0.9997302607115919
0.9997323083266699
0.9997343451421041
0.9997363658191575
0.9997383649277113
0.9997403369695488
0.9997422764036031
0.9997441776730224
0.9997460352339668
0.9997478435859228
0.9997495973034118
0.9997512910688154
0.999752919706159
0.9997544782155156
0.999755961807848
0.9997573659398968
0.9997586863489147
0.9997599190868205
0.9997610605535612
0.9997621075292454
0.9997630572048356
0.9997639072109625
0.9997646556446851
0.9997653010937684
0.9997658426583426
0.9997662799695692
0.99976661320522
0.9997668431018591
0.9997669709636059
0.9997669986672235
0.9997669286636097
0.9997667639754881
0.9997665081914611
0.9997661654562894
0.9997657404576241
0.9997652384091045
0.9997646650300884
0.9997640265219494
0.999763329541204
0.9997625811693757
0.9997617888798053
0.9997609605012218
0.9997601041781968
0.9997592283281485
0.9997583415948141
0.9997574527977743
0.9997565708782078
0.9997557048404992
0.9997548636897371
0.9997540563661289
0.9997532916818536
0.9997525782602463
0.9997519244894493
0.9997513385008857
0.999750828175055
0.9997504011346308
0.9997500649506522
0.9997498266443249
0.9997496937410167
0.999749671699651
0
0
0.999692206320711
0.9996917107626746
0.9996911786948266
0.9996906129348323
0.9996900172402124
0.9996893965903025
0.999688756594353
0.9996881032920106
0.9996874429662334
0.9996867819472297
0.9996861264908501
0.9996854826742552
0.9996848563136725
0.9996842529058978
0.999683677586023
0.9996831351025007
0.9996826298060356
0.9996821656497501
0.9996817461976606
0.9996813746400496
0.9996810538130918
0.9996807862217005
0.9996805740637204
0.999680419255035
0.9996803234541886
0.9996802880864764
0.9996803143664782
0.9996804033192453
0.9996805557993853
0.9996807725083947
0.9996810540096707
0.99968140074164
0.999681813028551
0.999682291089419
0.9996828350447553
0.9996834449215821
0.9996841206564315
0.9996848620968305
0.9996856690010131
0.9996865410363539
0.999687477776307
0.9996884786963195
0.9996895431685451
0.9996906704557974
0.9996918597046079
0.9996931099378001
0.9996944200464727
0.9996957887817866
0.9996972147464637
0.9996986963863825
0.9997002319821945
0.999701819641321
0.9997034572902893
0.9997051426677329
0.9997068733180391
0.9997086465859467
0.9997104596120914
0.9997123093297721
0.9997141924629575
0.9997161055257718
0.9997180448234811
0.9997200064551932
0.9997219863182949
0.9997239801147921
0.9997259833595795
0.9997279913907536
0.9997299993819886
0.9997320023570337
0.9997339952063317
0.9997359727057579
0.9997379295374581
0.9997398603127141
0.9997417595967815
0.9997436219355724
0.9997454418840819
0.9997472140363591
0.9997489330568936
0.9997505937131502
0.9997521909090751
0.9997537197192594
0.9997551754235475
0.9997565535417228
0.9997578498680397
0.9997590605051914
0.999760181897482
0.9997612108627644
0.9997621446229171
0.9997629808324271
0.9997637176048729
0.9997643535368834
0.9997648877294261
0.9997653198060222
0.9997656499278086
0.9997658788050976
0.9997660077054237
0.9997660384577984
0.9997659734532413
0.9997658156413778
0.9997655685232562
0.9997652361402385
0.9997648230591915
0.9997643343538803
0.9997637755828466
0.9997631527636981
0.9997624723441051
0.999761741169422
0.9997609664472112
0.9997601557085252
0.9997593167661656
0.9997584576697369
0.9997575866576782
0.999756712106011
0.9997558424740671
0.9997549862475008
0.9997541518796073
0.9997533477312119
0.9997525820126901
0.9997518627319499
0.99975119765099
0.9997505942541745
0.999750059745009
0.9997496009710445
0.999749224531859
0.9997489364788796
0.9997487426222931
0.999748647266849
0
0
0.9996933043349738
0.9996926981682722
0.9996920724818559
0.9996914289417137
0.9996907698651029
0.9996900988242149
0.9996894199838817
0.9996887380456223
0.9996880579866841
0.9996873849175246
0.9996867239563276
0.9996860801248756
0.9996854582702055
0.9996848630056985
0.9996842986680535
0.9996837692899403
0.9996832785844824
0.9996828299404197
0.9996824264252233
0.9996820707948575
0.9996817655077421
0.9996815127422173
0.9996813144156328
0.9996811722047265
0.9996810875658616
0.9996810617551447
0.9996810958473301
0.9996811907537698
0.999681347238554
0.999681565933256
0.9996818473496003
0.9996821918905502
0.9996825998592646
0.9996830714664605
0.9996836068357257
0.9996842060073268
0.9996848689401331
0.9996855955121975
0.9996863855196684
0.9996872386745596
0.9996881546010973
0.999689132831159
0.9996901727985507
0.9996912738326194
0.9996924351509875
0.9996936558518768
0.9996949349058393
0.9996962711473429
0.9996976632660575
0.9996991097982639
0.9997006091182685
0.9997021594302054
0.999703758760152
0.999705404948912
0.9997070956454066
0.9997088283010152
0.9997106001648229
0.9997124082800827
0.9997142494818798
0.999716120396266
0.99971801744086
0.9997199368271585
0.9997218745645543
0.9997238264662568
0.9997257881571251
0.9997277550835503
0.9997297225253924
0.9997316856100523
0.9997336393286712
0.9997355785544723
0.9997374980632117
0.9997393925556972
0.9997412566822942
0.9997430850693193
0.9997448723472038
0.9997466131802489
0.9997483022978237
0.9997499345267546
0.9997515048247219
0.9997530083143435
0.9997544403177385
0.9997557963911861
0.9997570723596507
0.9997582643507591
0.9997593688279756
0.9997603826225377
0.9997613029639179
0.9997621275083519
0.9997628543652322
0.9997634821209223
0.9997640098598288
0.9997644371823246
0.9997647642194244
0.9997649916438505
0.9997651206774755
0.999765153094835
0.9997650912227907
0.9997649379361043
0.9997646966490897
0.999764371303176
0.9997639663506224
0.999763486734281
0.9997629378637083
0.9997623255875553
0.9997616561625767
0.9997609362191882
0.9997601727239248
0.9997593729387197
0.9997585443773249
0.9997576947587746
0.9997568319582524
0.9997559639553587
0.999755098780235
0.999754244457709
0.9997534089507414
0.9997526001041026
0.9997518255897906
0.9997510928565725
0.9997504090858885
0.9997497811455758
0.9997492155678078
0.9997487184791677
0.9997482955678666
0.999747951948279
0.9997476921203821
0.9997475193637877
0
0
0.9996944222201254
0.9996937055461212
0.9996929847190897
0.9996922605538254
0.9996915342461343
0.9996908081903604
0.9996900853603569
0.9996893692786422
0.9996886637690865
0.9996879728487323
0.9996873005973821
0.9996866510648418
0.9996860281957803
0.9996854357722927
0.9996848773715254
0.999684356337107
0.9996838757612739
0.9996834384769373
0.9996830470569129
0.9996827038194611
0.9996824108378991
0.9996821699537802
0.9996819827917537
0.9996818507759615
0.9996817751464921
0.9996817569760242
0.9996817971854861
0.9996818965590736
0.9996820557576841
0.9996822753312452
0.9996825557291669
0.9996828973094715
0.9996833003459664
0.9996837650340448
0.9996842914945765
0.9996848797764878
0.9996855298575671
0.9996862416440925
0.9996870149688681
0.9996878495882586
0.9996887451778592
0.9996897013273598
0.9996907175342962
0.9996917931972116
0.9996929276079651
0.9996941199436895
0.9996953692581603
0.9996966744730641
0.9996980343689574
0.9996994475763759
0.9997009125669245
0.9997024276447823
0.9997039909384751
0.999705600393337
0.9997072537645383
0.9997089486110662
0.999710682290575
0.9997124519554569
0.9997142545500709
0.999716086809451
0.9997179452594488
0.9997198262185923
0.9997217258016291
0.9997236399249878
0.9997255643141387
0.9997274945130242
0.9997294258955474
0.9997313536792244
0.999733272940975
0.9997351786351037
0.9997370656134037
0.9997389286473843
0.9997407624525187
0.999742561714434
0.9997443211169079
0.9997460353715213
0.9997476992487895
0.999749307610548
0.9997508554433773
0.9997523378927735
0.9997537502978211
0.999755088226007
0.9997563475079141
0.999757524271387
0.9997586149748957
0.999759616439659
0.9997605258802671
0.9997613409333419
0.9997620596840152
0.9997626806897679
0.9997632030014478
0.9997636261810533
0.9997639503161654
0.9997641760306523
0.9997643044916242
0.9997643374123213
0.9997642770510032
0.9997641262055961
0.9997638882042649
0.9997635668917341
0.9997631666116127
0.9997626921846201
0.9997621488830324
0.9997615424012998
0.9997608788232061
0.9997601645855441
0.999759406438715
0.9997586114042216
0.9997577867295036
0.9997569398400918
0.9997560782895576
0.9997552097073285
0.9997543417450544
0.9997534820217457
0.9997526380685888
0.9997518172742837
0.9997510268319428
0.999750273687582
0.9997495644930849
0.9997489055547156
0.9997483027833017
0.9997477616400511
0.9997472870410422
0.999746883264443
0.9997465537907597
0.9997463011078214
0
0
0.9996955436030933
0.9996947172772191
0.999693900753273
0.9996930942012744
0.9996922979245425
0.9996915133660617