# vtk DataFile Version 2.0
2D-ADE data file 
ASCII
DATASET RECTILINEAR_GRID
DIMENSIONS 128 128 1 
X_COORDINATES 128 int
0 1 2 3 4 5 6 7 8 9 10 11 12 13 14 15 16 17 18 19 20 21 22 23 24 25 26 27 28 29 30 31 32 33 34 35 36 37 38 39 40 41 42 43 44 45 46 47 48 49 50 51 52 53 54 55 56 57 58 59 60 61 62 63 64 65 66 67 68 69 70 71 72 73 74 75 76 77 78 79 80 81 82 83 84 85 86 87 88 89 90 91 92 93 94 95 96 97 98 99 100 101 102 103 104 105 106 107 108 109 110 111 112 113 114 115 116 117 118 119 120 121 122 123 124 125 126 127 
Y_COORDINATES 128 int
0 1 2 3 4 5 6 7 8 9 10 11 12 13 14 15 16 17 18 19 20 21 22 23 24 25 26 27 28 29 30 31 32 33 34 35 36 37 38 39 40 41 42 43 44 45 46 47 48 49 50 51 52 53 54 55 56 57 58 59 60 61 62 63 64 65 66 67 68 69 70 71 72 73 74 75 76 77 78 79 80 81 82 83 84 85 86 87 88 89 90 91 92 93 94 95 96 97 98 99 100 101 102 103 104 105 106 107 108 109 110 111 112 113 114 115 116 117 118 119 120 121 122 123 124 125 126 127 
Z_COORDINATES 1 int
0
POINT_DATA 16384
SCALARS density double
LOOKUP_TABLE default
0
0
0
0
0
0
0
0
0
0
0
0
0
0
0
0
0
0
0
0
0
0
0
0
0
0
0
0
0
0
0
0
0
0
0
0
0
0
0
0
0
0
0
0
0
0
0
0
0
0
0
0
0
0
0
0
0
0
0
0
0
0
0
0
0
0
0
0
0
0
0
0
0
0
0
0
0
0
0
0
0
0
0
0
0
0
0
0
0
0
0
0
0
0
0
0
0
0
0
0
0
0
0
0
0
0
0
0
0
0
0
0
0
0
0
0
0
0
0
0
0
0
0
0
0
0
0
0
0
0.9991443173952309
0.9991639854075174
0.9991779478039764
0.9991840436875797
0.9991889888164354
0.9991942401925344
0.9991996521183597
0.9992052562373931
0.9992111939724865
0.9992175445445663
0.999224344915811
0.9992316211446348
0.9992393917874987
0.999247666000162
0.9992564440343074
0.999265718482951
0.999275475278688
0.9992856945894144
0.9992963517531207
0.9993074182619757
0.9993188627737783
0.9993306521282515
0.9993427523410957
0.9993551295446079
0.9993677508433475
0.9993805850571196
0.9993936033301241
0.9994067795932519
0.9994200908749854
0.9994335174643509
0.9994470429362767
0.9994606540551613
0.9994743405763068
0.9994880949671483
0.9995019120710302
0.9995157887358568
0.9995297234284639
0.9995437158533234
0.9995577665913541
0.9995718767714563
0.99958604778407
0.9996002810427609
0.9996145777967156
0.9996289389941868
0.9996433651944808
0.9996578565240744
0.9996724126709295
0.999687032910064
0.9997017161529123
0.9997164610129411
0.9997312658802977
0.9997461289989568
0.999761048540691
0.9997760226712932
0.9997910496055933
0.9998061276489757
0.9998212552241589
0.9998364308829867
0.9998516533037798
0.9998669212754541
0.9998822336701136
0.9998975894061543
0.9999129874041451
0.999928426537872
0.9999439055829751
0.9999594231656241
0.9999749777136315
0.9999905674123594
1.0000061901676682
1.0000218435780148
1.0000375249175855
1.0000532311320247
1.0000689588478686
1.000084704396199
1.0001004638502735
1.0001162330759872
1.0001320077929834
1.0001477836431076
1.000163556261726
1.000179321346332
1.0001950747158324
1.000210812353123
1.0002265304230826
1.000242225257988
1.0002578933027406
1.000273531013174
1.0002891347021923
1.000304700330537
1.0003202232416355
1.0003356978431597
1.000351117241575
1.0003664728399584
1.0003817539135507
1.0003969471816991
1.000412036398782
1.0004270019901202
1.000441820761437
1.0004564657118042
1.0004709059798684
1.0004851069511012
1.0004990305497263
1.0005126357325043
1.000525879192897
1.0005387162733599
1.0005511020712594
1.0005629927109583
1.0005743467421493
1.000585126614014
1.000595300167934
1.0006048420899463
1.0006137352679316
1.000621972004045
1.0006295550346813
1.0006364983457634
1.0006428279142008
1.0006485825152587
1.0006538135537029
1.0006585822065786
1.00066296175673
1.000667068030375
1.0006710780932682
1.0006750577376529
1.0006788970600775
1.0006840657971219
1.0006971475189383
1.0007159737839368
0
0
0.9991655576945568
0.9991734441161876
0.9991813417565698
0.9991878214489932
0.9991935540667629
0.9991987852629474
0.9992040401677804
0.9992095424616713
0.999215368359348
0.9992215715058589
0.9992282028884427
0.9992352988158989
0.999242881825701
0.9992509642814508
0.9992595499532326
0.9992686346213675
0.9992782068323742
0.9992882488234597
0.9992987375089346
0.9993096455057511
0.9993209421936541
0.9993325947863589
0.9993445693801528
0.9993568319448561
0.9993693492246982
0.9993820895216549
0.9993950233406567
0.9994081238841258
0.9994213673916423
0.9994347333283955
0.9994482044328934
0.9994617666398204
0.9994754088977964
0.9994891229041145
0.9995029027793996
0.9995167447047131
0.9995306465421859
0.9995446074579888
0.9995586275635975
0.9995727075881335
0.9995868485912026
0.999601051722355
0.9996153180301595
0.9996296483210548
0.9996440430657187
0.999658502348705
0.9996730258556322
0.9996876128911983
0.999702262420824
0.9997169731286271
0.9997317434847839
0.9997465718159545
0.9997614563733263
0.9997763953938413
0.9997913871512891
0.9998064299950082
0.9998215223749893
0.9998366628530814
0.9998518501007763
0.9998670828846762
0.9998823600412082
0.9998976804424906
0.9999130429554494
0.9999284463964202
0.9999438894835113
0.9999593707889974
0.9999748886940115
0.9999904413477191
1.000006026633073
1.0000216421411154
1.0000372851555612
1.0000529526490969
1.0000686412923905
1.000084347476244
1.0001000673465867
1.0001157968511665
1.000131531795779
1.000147267906833
1.0001630008959121
1.0001787265209507
1.0001944406376497
1.000210139234031
1.0002258184405433
1.0002414745080535
1.0002571037464247
1.000272702417272
1.000288266575938
1.0003037918597781
1.0003192732224708
1.000334704617211
1.0003500786352941
1.0003653861105406
1.0003806157041804
1.0003957534889363
1.0004107825549196
1.0004256826632503
1.0004404299757412
1.0004549968902234
1.0004693520107266
1.0004834602795816
1.0004972832942283
1.000510779825063
1.0005239065420555
1.0005366189473492
1.0005488724992027
1.000560623900163
1.0005718325103934
1.0005824618368195
1.0005924810411853
1.0006018664060088
1.0006106026986186
1.0006186843848401
1.0006261166662067
1.0006329162993242
1.0006391120724827
1.0006447449427085
1.0006498689746228
1.000654554140773
1.0006588862787227
1.0006629540961967
1.0006668680620574
1.000670882744023
1.0006755463317345
1.0006811292987776
1.0006883104209339
1.0006956784951053
0
0
0.9991827692372286
0.999184209683956
0.9991883154223989
0.9991941802587231
0.9991993988651429
0.9992042761633998
0.9992093255310148
0.9992146327181556
0.9992202439774667
0.9992262284144316
0.9992326402800428
0.9992395139102711
0.9992468730218134
0.9992547328511893
0.9992630998321469
0.9992719719810287
0.9992813397649476
0.9992911869927825
0.9993014917534967
0.9993122274452907
0.9993233638703611
0.9993348683505479
0.9993467068231232
0.9993588448789288
0.9993712487083964
0.999383885926604
0.999396726256108
0.9994097420547803
0.9994229086844375
0.9994362047240185
0.9994496120379499
0.999463115715838
0.9994767039035523
0.9994903675481315
0.9995041000798409
0.9995178970542896
0.9995317557760561
0.9995456749229408
0.9995596541870772
0.9995736939458801
0.9995877949724201
0.9996019581914609
0.9996161844842475
0.9996304745422989
0.9996448287680355
0.9996592472181102
0.999673729583856
0.9996882752023037
0.9997028830907345
0.9997175519976987
0.9997322804637389
0.9997470668857087
0.9997619095794112
0.9997768068362831
0.9997917569709057
0.9998067583571701
0.9998218094519078
0.9998369088056736
0.9998520550611008
0.9998672469398432
0.9998824832195494
0.9998977627026369
0.999913084178817
0.9999284463834369
0.9999438479537467
0.9999592873852063
0.9999747629899189
0.9999902728592126
1.000005814832319
1.0000213864729572
1.0000369850554254
1.0000526075615115
1.0000682506891327
1.000083910873058
1.0000995843173959
1.000115267038703
1.0001309549176245
1.0001466437559436
1.0001623293348727
1.0001780074693543
1.0001936740522406
1.0002093250814783
1.0002249566629635
1.000240564981675
1.000256146234038
1.0002716965153629
1.0002872116576471
1.0003026870150573
1.000318117197016
1.0003334957519634
1.000348814808492
1.0003640646844774
1.0003792334789947
1.0003943066658778
1.000409266711612
1.0004240927434667
1.0004387602961127
1.0004532411660532
1.000467503402718
1.0004815114627494
1.000495226549616
1.0005086071541591
1.0005216098030572
1.0005341900117821
1.0005463034269075
1.0005579071303217
1.0005689610659376
1.0005794295390074
1.0005892827305036
1.000598498164772
1.0006070620658187
1.0006149705348286
1.0006222305045323
1.000628860500844
1.000634891223994
1.0006403654699587
1.0006453371822948
1.0006498728872073
1.0006540601467657
1.0006580013220858
1.000661775318919
1.000665500386608
1.000669714701817
1.000674737898866
1.0006782281543383
1.0006793226108914
0
0
0.9991931117662404
0.9991944023007107
0.9991976748110671
0.9992017621976541
0.9992060330310568
0.9992106144830168
0.9992153807424156
0.9992203806804284
0.9992257190463321
0.9992314531020974
0.9992376180584835
0.9992442461766948
0.9992513634595271
0.999258986315241
0.9992671221883083
0.9992757704749586
0.9992849230518296
0.999294564916323
0.9993046750695682
0.9993152275415663
0.999326192489459
0.9993375373287958
0.99934922785651
0.9993612293223149
0.9993735074099122
0.9993860290969688
0.9993987633713166
0.9994116817897735
0.9994247588747964
0.9994379723523843
0.9994513032417034
0.9994647358125514
0.9994782574308227
0.9994918583146031
0.9995055312244762
0.9995192711112687
0.9995330747429902
0.9995469403304137
0.9995608671678072
0.9995748553020598
0.9995889052400042
0.9996030177003663
0.9996171934135918
0.9996314329699497
0.9996457367138958
0.9996601046807041
0.9996745365699503
0.9996890317494592
0.9997035892828687
0.9997182079739194
0.999732886420894
0.999747623075258
0.9997624162993793
0.9997772644191706
0.9997921657685142
0.999807118723353
0.9998221217242562
0.9998371732871255
0.9998522720023971
0.9998674165236565
0.9998826055470119
0.999897837782845
0.9999131119217622
0.9999284265966548
0.9999437803428263
0.9999591715581487
0.9999745984651728
0.9999900590770776
1.0000055511692547
1.0000210722581973
1.000036619589173
1.000052190133884
1.000067780598923
1.0000833874453254
1.0000990069188536
1.0001146350898766
1.0001302679007897
1.0001459012179355
1.000161530883964
1.0001771527655734
1.0001927627906733
1.0002083569683171
1.000223931384316
1.0002394821653757
1.0002550054049926
1.000270497045205
1.000285952709776
1.000301367486375
1.0003167356579783
1.0003320503868118
1.0003473033577923
1.0003624843923429
1.0003775810475644
1.000392578219783
1.0004074577752282
1.0004221982337174
1.0004367745333924
1.0004511579054916
1.000465315887463
1.0004792125002087
1.0004928086107072
1.000506062494598
1.0005189306046296
1.0005313685404804
1.00054333220379
1.0005547791100664
1.000565669817229
1.0005759694196452
1.0005856490474392
1.0005946873057396
1.0006030715915633
1.0006107992291402
1.0006178783369353
1.0006243283118528
1.000630180061319
1.0006354764910217
1.0006402725547363
1.0006446311749793
1.0006486192058923
1.000652325865056
1.0006558870128535
1.000659381561134
1.0006627137758777
1.0006660306181119
1.0006687294111982
1.0006696963451778
0
0
0.9992025308741194
0.9992042372574721
0.9992068169194904
0.9992098744859035
0.9992135932406162
0.9992176858909232
0.9992220233515696
0.9992266948658881
0.9992317437221128
0.9992371971235213
0.999243091183289
0.9992494586636823
0.9992563229346023
0.9992636994354531
0.9992715962135692
0.9992800135640678
0.9992889441945525
0.9992983738688402
0.9993082822417492
0.999318643819757
0.9993294290315489
0.9993406053594972
0.9993521384752678
0.9993639933306143
0.999376135162596
0.9993885303801353
0.9994011473075715
0.9994139567702862
0.999426932516694
0.9994400514793672
0.9994532938853209
0.9994666432313044
0.9994800861441345
0.9994936121487185
0.9995072133674503
0.9995208841744018
0.999534620826298
0.9995484210899799
0.9995622838831357
0.9995762089417918
0.9995901965246097
0.9996042471606377
0.9996183614439684
0.999632539875901
0.9996467827527685
0.9996610900956348
0.9996754616166182
0.99968989671566
0.9997043945010682
0.9997189538271362
0.9997335733424376
0.9997482515430017
0.9997629868253829
0.9997777775355674
0.9997926220106458
0.9998075186111585
0.9998224657429257
0.9998374618679728
0.9998525055048461
0.9998675952191305
0.999882729605403
0.9998979072621111
0.9999131267610571
0.9999283866132572
0.9999436852329869
0.9999590209018292
0.9999743917345076
0.9999897956482515
1.0000052303373452
1.0000206932544087
1.0000361815997625
1.000051692319966
1.000067222116256
1.0000827674631003
1.0000983246364716
1.0001138897506847
1.0001294588017697
1.0001450277144082
1.0001605923884687
1.0001761487402292
1.00019169273251
1.0002072203872705
1.0002227277738274
1.0002382109658066
1.000253665960335
1.0002690885538856
1.0002844741706494
1.0002998176413367
1.000315112932931
1.0003303528330516
1.0003455285961758
1.000360629562862
1.000375642767179
1.0003905525514838
1.0004053402113307
1.0004199836962409
1.0004344573940802
1.00044873202748
1.0004627746898704
1.0004765490459284
1.0004900157165244
1.000503132861421
1.0005158569642454
1.0005281438138331
1.000539949664443
1.0005512325451666
1.0005619536769697
1.0005720789452945
1.0005815803675753
1.0005904374868482
1.0005986386158296
1.0006061818667475
1.0006130759395617
1.0006193405928836
1.0006250064995135
1.0006301144538743
1.0006347153901132
1.000638871203253
1.0006426479332606
1.0006461029763043
1.0006493094930082
1.0006523842503197
1.0006552246189058
1.0006575704619725
1.0006596205994642
1.0006610048472449
0
0
0.9992122908020894
0.9992137541997992
0.9992158319447594
0.9992184942720188
0.9992216902546994
0.9992252467667692
0.9992291926726212
0.9992335286991775
0.9992382556088191
0.9992434079127396
0.999249019488231
0.999255115783401
0.9992617175490074
0.9992688401820667
0.9992764917966321
0.9992846728399544
0.9992933764285392
0.999302588827477
0.9993122901286223
0.9993224551533192
0.9993330545013845
0.9993440556707236
0.9993554241919103
0.9993671247284128
0.9993791220981247
0.9993913821801923
0.9994038726809374
0.9994165637425786
0.9994294283879506
0.9994424428031191
0.9994555864672858
0.9994688421453799
0.999482195763114
0.9994956361870246
0.9995091549331951
0.9995227458281793
0.9995364046442957
0.9995501287292069
0.9995639166468114
0.9995777678431848
0.9995916823478642
0.999605660517352
0.9996197028245226
0.9996338096947387
0.9996479813870446
0.999662217916848
0.99967651901505
0.99969088411763
0.9997053123792249
0.9997198027041734
0.9997343537888087
0.9997489641693462
0.9997636322705054
0.9997783564509022
0.9997931350421942
0.9998079663799104
0.999822848824754
0.9998377807739524
0.999852760662862
0.9998677869575483
0.9998828581394551
0.9998979726835224
0.9999131290312961
0.9999283255606598
0.9999435605538618
0.9999588321655024
0.9999741383921358
0.9999894770450902
1.0000048457280277
1.000020241820661
1.0000356624698619
1.0000511045891476
1.0000665648671616
1.0000820397853145
1.0000975256441262
1.000113018597104
1.0001285146901477
1.0001440099035677
1.0001595001928512
1.0001749815233982
1.0001904498936303
1.0002059013402442
1.0002213319190043
1.0002367376544672
1.000252114452444
1.0002674579699378
1.0002827634387599
1.0002980254410792
1.0003132376377804
1.0003283924536315
1.0003434807268201
1.0003584913342927
1.0003734108082927
1.0003882229633498
1.0004029085564612
1.0004174450059777
1.0004318061965098
1.0004459623976267
1.000459880322986
1.0004735233535476
1.0004868519435635
1.0004998242210865
1.0005123967858787
1.000524525697215
1.000536167632565
1.000547281186147
1.0005578282645207
1.0005677755253326
1.00057709579679
1.0005857694113272
1.0005937853821298
1.0006011423330987
1.0006078490945418
1.0006139249895074
1.0006193998661472
1.0006243132874768
1.0006287120707436
1.0006326490834883
1.0006361863688227
1.0006393865725587
1.0006422780385251
1.0006448877271361
1.0006472677468232
1.0006492684007449
1.0006508561183654
1.0006520135940526
0
0
0.9992221745005551
0.9992233254641718
0.9992250785402326
0.9992273782787104
0.9992301026446043
0.9992332497424058
0.9992368241684217
0.9992408000863179
0.9992451979341548
0.9992500459008534
0.9992553666256095
0.9992611831418003
0.9992675159813516
0.9992743795400775
0.9992817812908984
0.9992897217073201
0.9992981941718388
0.9993071852332196
0.9993166752427854
0.999326639220029
0.9993370478598318
0.9993478686290234
0.999359066895126
0.999370607030652
0.999382453445262
0.999394571508114
0.9994069283325515
0.999419493405277
0.9994322390519393
0.9994451407400331
0.9994581772277233
0.9994713305734105
0.9994845860254309
0.9994979318141894
0.9995113588703526
0.9995248604926628
0.999538431987678
0.9995520703015451
0.9995657736610755
0.9995795412381029
0.9995933728476779
0.9996072686872283
0.9996212291206068
0.9996352545080636
0.9996493450807415
0.9996635008563058
0.99967772159089
0.9996920067615547
0.9997063555729955
0.9997207669821491
0.9997352397346396
0.9997497724075581
0.9997643634538236
0.9997790112442408
0.9997937141042952
0.9998084703436148
0.9998232782768864
0.9998381362357357
0.9998530425716996
0.9998679956509291
0.9998829938416015
0.9998980354952853
0.9999131189236645
0.9999282423721201
0.9999434039916902
0.9999586018109533
0.9999738337093427
0.9999890973933636
1.0000043903771108
1.000019709968376
1.0000350532614615
1.0000504171375841
1.0000657982733978
1.0000811931577225
1.0000965981159795
1.0001120093411522
1.0001274229292776
1.0001428349166097
1.000158241314686
1.000173638138651
1.0001890214234153
1.000204387221629
1.0002197315771175
1.000235050467441
1.0002503397097093
1.0002655948247003
1.0002808108558536
1.0002959821417623
1.0003111020433955
1.0003261626304223
1.0003411543345326
1.0003560655814658
1.0003708824173354
1.0003855881485937
1.0004001630182804
1.000414583943796
1.000428824342988
1.000442854075548
1.000456639525295
1.000470143845689
1.0004833273857312
1.0004961483062844
1.000508563387938
1.0005205290211587
1.0005320023580588
1.0005429425933188
1.000553312330454
1.0005630789792317
1.000572216120288
1.0005807047653725
1.0005885344437755
1.0005957040536493
1.0006022223831208
1.0006081081477876
1.0006133895839535
1.0006181039753255
1.000622296373465
1.0006260153935582
1.0006293097809744
1.0006322337400517
1.0006348328490118
1.000637105281737
1.0006390774232108
1.0006407662648562
1.0006420660035222
1.0006429330336009
0
0
0.9992321395314251
0.9992330648788291
0.9992345318821023
0.9992364618407007
0.9992388164706294
0.9992416066402412
0.9992448136372691
0.9992484450900773
0.9992525228753846
0.999257063853802
0.9992620901130463
0.9992676247375699
0.9992736863591121
0.9992802882241743
0.9992874376157785
0.9992951350268175
0.999303373912188
0.9993121409807739
0.9993214167715184
0.9993311764438568
0.9993413907459477
0.9993520270929284
0.9993630506860753
0.9993744256157315
0.9993861158998874
0.9993980864187548
0.9994103037155601
0.9994227366441957
0.9994353568543851
0.9994481391141493
0.9994610614772771
0.9994741053099162
0.999487255195172
0.9995004987376974
0.999513826291754
0.9995272306362852
0.9995407066194114
0.9995542507926314
0.9995678610522233
0.9995815363020966
0.9995952761489086
0.9996090806368576
0.9996229500263277
0.9996368846176852
0.9996508846190463
0.999664950054875
0.9996790807107836
0.9996932761089542
0.999707535508091
0.999721857921732
0.9997362421490132
0.999750686812506
0.9997651903984768
0.9997797512957611
0.9997943678303247
0.9998090382934532
0.999823760962332
0.9998385341124656
0.9998533560220064
0.9998682249685064
0.9998831392189803
0.9998980970143911
0.9999130965498382
0.9999281359518096
0.9999432132538981
0.9999583263723777
0.9999734730830393
0.9999886510006109
1.0000038575620507
1.0000190900148773
1.0000343454115452
1.0000496206106473
1.0000649122853869
1.0000802169393397
1.0000955309289556
1.0001108504916099
1.0001261717772185
1.0001414908806117
1.0001568038709832
1.0001721068139042
1.0001873957806442
1.0002026668389827
1.0002179160194105
1.000233139250666
1.0002483322590376
1.0002634904268388
1.0002786086069893
1.0002936808926999
1.0003087003439002
1.0003236586751407
1.0003385459132201
1.0003533500365362
1.0003680566119366
1.0003826484484724
1.0003971052905731
1.0004114035755456
1.0004255162815772
1.0004394128923582
1.0004530595027215
1.000466419086186
1.0004794519398896
1.0004921163150926
1.0005043692324926
1.0005161674712633
1.0005274687095436
1.0005382327825836
1.00054842301354
1.0005580075621343
1.0005669607290073
1.0005752641463197
1.0005829077756383
1.0005898906395065
1.0005962212492387
1.0006019176591467
1.000607006891266
1.0006115237093318
1.0006155095970988
1.0006190113160143
1.0006220748850951
1.000624740847255
1.0006270539401847
1.00062904322899
1.000630709513317
1.000632080181081
1.0006331311159211
1.000633796008951
0
0
0.9992422373985406
0.999242952150217
0.9992441358499649
0.9992457436707682
0.9992477760122898
0.9992502260182153
0.9992530958391552
0.9992564053938682
0.9992601697286265
0.9992644083218407
0.9992691447330488
0.9992743999408027
0.9992801914894467
0.9992865325012812
0.9992934300984684
0.99930088465543
0.9993088896992561
0.9993174321026396
0.9993264925630863
0.999336046355936
0.9993460642772345
0.9993565136984555
0.9993673596716807
0.9993785660288022
0.9993900964238952
0.999401915277266
0.9994139885901047
0.9994262846090239
0.9994387743298022
0.9994514318389233
0.9994642344996212
0.9994771629957332
0.9994902012516483
0.9995033362499186
0.999516557769788
0.9995298580701164
0.9995432315391548
0.9995566743316205
0.9995701840107891
0.9995837592101102
0.9995973993254582
0.99961110424571
0.9996248741261073
0.9996387092059787
0.9996526096698877
0.9996665755493062
0.9996806066604034
0.9996947025725763
0.9997088626018057
0.9997230858228459
0.999737371094471
0.9997517170925265
0.9997661223462262
0.9997805852739394
0.9997951042155837
0.9998096774595592
0.9998243032629544
0.9998389798644298
0.999853705489758
0.999868478350448
0.9998832966362342
0.9998981585024166
0.9999130620532232
0.9999280053224173
0.9999429862524314
0.9999580026733116
0.9999730522827251
0.9999881326282621
1.0000032410931914
1.0000183748867273
1.0000335310397124
1.0000487064063983
1.000063897672695
1.000079101370829
1.0000943138998377
1.0001095315506663
1.0001247505339197
1.0001399670074946
1.0001551771005046
1.000170376929101
1.000185562599106
1.0002007301898366
1.0002158757132733
1.0002309950427877
1.000246083806193
1.000261137238866
1.0002761499942563
1.000291115911182
1.0003060277399431
1.000320876832392
1.0003356528045542
1.0003503431840886
1.0003649330585485
1.0003794047438697
1.0003937374954421
1.0004079072862635
1.0004218866776626
1.0004356448077278
1.000449147520541
1.000462357655536
1.0004752355106485
1.0004877394855196
1.0004998269020013
1.0005114549890233
1.000522582007929
1.0005331684833885
1.0005431784944496
1.0005525809705587
1.0005613509296856
1.0005694705927661
1.0005769303067786
1.0005837291950301
1.0005898754516114
1.0005953862749088
1.0006002874411843
1.0006046121643124
1.0006083990808219
1.0006116908166898
1.000614532651318
1.0006169653468338
1.0006190243587656
1.0006207485869518
1.00062215714623
1.000623257750386
1.0006240634422652
1.0006245413165904
0
0
0.9992524555175613
0.9992529443931896
0.9992538579864937
0.9992551802042444
0.999256909949845
0.9992590471123123
0.9992616086993387
0.9992646122811768
0.9992680764494426
0.9992720247206686
0.9992764795655287
0.9992814614968901
0.9992869883152842
0.999293072972432
0.9992997224021146
0.9993069370318016
0.9993147105412614
0.9993230299671133
0.9993318761694318
0.9993412245577648
0.9993510459986653
0.9993613078467092
0.9993719750369743
0.9993830111788062
0.9993943795993656
0.999406044294955
0.9994179707578057
0.9994301266562028
0.9994424823559728
0.9994550112807218
0.9994676901164605
0.9994804988730329
0.9994934208199313
0.9995064423175792
0.9995195525670404
0.9995327433014959
0.999546008441976
0.9995593437379174
0.9995727464104716
0.9995862148133511
0.9995997481225997
0.9996133460632848
0.9996270086778752
0.9996407361381465
0.9996545285999624
0.9996683860982598
0.9996823084780659
0.9996962953563666
0.9997103461090943
0.9997244598774061
0.9997386355876021
0.9997528719795494
0.9997671676391271
0.9997815210310002
0.99979593052885
0.9998103944410013
0.9998249110301434
0.999839478526495
0.999854095134317
0.9998687590321178
0.999883468367216
0.9998982212455519
0.9999130157177948
0.9999278497628581
0.9999427212699898
0.9999576280206048
0.9999725676710036
0.9999875377371015
1.0000025355822115
1.0000175584088522
1.0000326032553772
1.000047666998024
1.0000627463586784
1.0000778379182371
1.000092938134942
1.0001080433664573
1.0001231498937366
1.000138253943959
1.0001533517090262
1.0001684393553465
1.0001835130199743
1.0001985687876984
1.0002136026434587
1.000228610394609
1.0002435875580904
1.0002585292086454
1.0002734297857574
1.0002882828591309
1.0003030808551585
1.000317814749905
1.000332473737569
1.0003470448869798
1.0003615128022603
1.0003758593070797
1.000390063174636
1.0004040999273944
1.0004179417313095
1.000431557408577
1.000444912590633
1.0004579700290293
1.0004706900759668
1.0004830313387214
1.0004949515032144
1.0005064083119506
1.000517360670938
1.0005277698496178
1.0005376007280664
1.0005468230374408
1.0005554125323304
1.000563352028023
1.0005706322377277
1.0005772523527228
1.0005832202909781
1.00058855251848
1.0005932734736092
1.0005974147064316
1.0006010133004848
1.0006041093147076
1.0006067446342002
1.000608961646615
1.0006107968240774
1.0006122842006564
1.000613455374135
1.000614322833766
1.0006148967921842
1.0006151723880676
0
0
0.9992627373405336
0.9992629959642464
0.9992636542376166
0.9992647087232299
0.9992661570901433
0.9992680091332623
0.9992702834779571
0.999272999745376
0.9992761817877414
0.9992798537781743
0.9992840385226316
0.9992887574333201
0.9992940283901246
0.9992998642615033
0.9993062721144365
0.9993132525562232
0.999320799444802
0.9993289000228275
0.9993375353598902
0.9993466810371374
0.9993563080278859
0.9993663837100641
0.9993768729445677
0.9993877391614603
0.9993989454031418
0.9994104552814163
0.9994222338149772
0.9994342481240385
0.9994464679688992
0.9994588661286099
0.9994714186242429
0.999484104798237
0.9994969072666299
0.999509811764696
0.9995228069085815
0.9995358838961159
0.999549036169245
0.9995622590587818
0.9995755494295855
0.9995889053412178
0.9996023257357636
0.9996158101611156
0.9996293585347953
0.9996429709504473
0.9996566475266202
0.9996703882954248
0.9996841931271109
0.9996980616855842
0.999711993409324
0.9997259875119953
0.999740042997261
0.9997541586827403
0.9997683332287098
0.9997825651678972
0.9997968529335194
0.9998111948834949
0.9998255893194888
0.9998400345001027
0.9998545286480287
0.9998690699514352
0.999883656560153
0.9998982865774538
0.9999129580483616
0.9999276689455091
0.999942417153599
0.9999572004535358
0.9999720165072733
0.9999868628444014
1.0000017368514265
1.0000166357646163
1.000031556667125
1.000046496490923
1.000061452023742
1.0000764199208811
1.0000913967212037
1.000106378866079
1.0001213627193344
1.0001363445855405
1.0001513207231973
1.0001662873486692
1.0001812406260875
1.0001961766380179
1.0002110913315139
1.000225980434347
1.0002408393368227
1.0002556629356505
1.0002704454379636
1.0002851801257042
1.0002998590832437
1.000314472894163
1.0003290103165063
1.0003434579493256
1.0003577999067965
1.0003720175192714
1.0003860890831684
1.0003999896831597
1.0004136911105772
1.0004271619008862
1.0004403675104891
1.0004532706487195
1.000465831774848
1.0004780097622756
1.0004897627231606
1.0005010489769048
1.0005118281357668
1.0005220622709083
1.0005317171129766
1.000540763233813
1.0005491771509516
1.0005569422929168
1.0005640497592605
1.0005704988154518
1.0005762970846632
1.0005814603803505
1.0005860120752132
1.0005899820806636
1.0005934056895724
1.0005963217255511
1.0005987700506362
1.0006007912276624
1.0006024244756109
1.0006037033642619
1.000604658767299
1.0006053111325355
1.0006056681628617
1.000605737039498
0
0
0.9992730160084675
0.999273049023515
0.9992734642280025
0.9992742663173266
0.9992754557917278
0.9992770449486179
0.9992790526732778
0.9992815028068235
0.9992844212498622
0.9992878330523784
0.9992917624864084
0.9992962315196932
0.999301258190597
0.9993068556648582
0.9993130312694303
0.9993197858319229
0.9993271134681434
0.9993350016987553
0.999343431852211
0.9993523797270064
0.9993618164517465
0.9993717094765898
0.9993820236363363
0.999392722228622
0.9994037680555108
0.9994151243848837
0.9994267557974464
0.9994386288950274
0.9994507128557013
0.9994629798306915
0.9994754051864101
0.9994879676020882
0.9995006490389905
0.9995134346011036
0.9995263123094815
0.9995392728131919
0.9995523090592651
0.9995654159424091
0.9995785899527941
0.9995918288372033
0.9996051312855293
0.9996184966512386
0.9996319247111765
0.9996454154671509
0.9996589689891924
0.9996725852983221
0.9996862642851039
0.9997000056591913
0.9997138089245086
0.9997276733744933
0.9997415981020342
0.9997555820191332
0.9997696238819578
0.999783722317672
0.9997978758502098
0.9998120829229102
0.9998263419166487
0.9998406511627143
0.9998550089501991
0.9998694135280798
0.9998838631024846
0.9998983558298378
0.9999128898067394
0.9999274630574918
0.9999420735202487
0.9999567190327555
0.9999713973186493
0.9999861059752423
1.0000008424636746
1.0000156041022161
1.0000303880633645
1.0000451913751907
1.0000600109270865
1.0000748434797044
1.0000896856783958
1.0001045340688888
1.0001193851132841
1.0001342352037355
1.0001490806704658
1.0001639177800719
1.0001787427194953
1.0001935515606544
1.0002083402005881
1.000223104272198
1.0002378390213014
1.0002525391468489
1.0002671986027747
1.000281810362121
1.0002963661467104
1.0003108561286924
1.0003252686136037
1.0003395897180207
1.000353803058172
1.0003678894688204
1.0003818267739684
1.0003955896322896
1.0004091494802518
1.0004224745945915
1.0004355302928163
1.0004482792858032
1.0004606821902977
1.000472698201426
1.0004842859164882
1.0004954042917429
1.0005060137041883
1.000516077081085
1.0005255610518067
1.0005344370697675
1.0005426824476025
1.000550281248095
1.0005572249744006
1.0005635130002848
1.0005691526900402
1.0005741591959034
1.000578554904242
1.0005823684252295
1.0005856332897287
1.0005883866977796
1.0005906676044654
1.0005925149372081
1.0005939674269981
1.0005950603974112
1.0005958226676328
1.0005962752499276
1.0005964274229882
1.0005962939296116
0
0
0.9992832205847085
0.9992830363535363
0.9992832214319582
0.9992837884328761
0.9992847394666616
0.9992860863038513
0.9992878492257976
0.9992900542807949
0.9992927284304362
0.9992958983252013