# vtk DataFile Version 2.0
2D-ADE data file 
ASCII
DATASET RECTILINEAR_GRID
DIMENSIONS 128 128 1 
X_COORDINATES 128 int
0 1 2 3 4 5 6 7 8 9 10 11 12 13 14 15 16 17 18 19 20 21 22 23 24 25 26 27 28 29 30 31 32 33 34 35 36 37 38 39 40 41 42 43 44 45 46 47 48 49 50 51 52 53 54 55 56 57 58 59 60 61 62 63 64 65 66 67 68 69 70 71 72 73 74 75 76 77 78 79 80 81 82 83 84 85 86 87 88 89 90 91 92 93 94 95 96 97 98 99 100 101 102 103 104 105 106 107 108 109 110 111 112 113 114 115 116 117 118 119 120 121 122 123 124 125 126 127 
Y_COORDINATES 128 int
0 1 2 3 4 5 6 7 8 9 10 11 12 13 14 15 16 17 18 19 20 21 22 23 24 25 26 27 28 29 30 31 32 33 34 35 36 37 38 39 40 41 42 43 44 45 46 47 48 49 50 51 52 53 54 55 56 57 58 59 60 61 62 63 64 65 66 67 68 69 70 71 72 73 74 75 76 77 78 79 80 81 82 83 84 85 86 87 88 89 90 91 92 93 94 95 96 97 98 99 100 101 102 103 104 105 106 107 108 109 110 111 112 113 114 115 116 117 118 119 120 121 122 123 124 125 126 127 
Z_COORDINATES 1 int
0
POINT_DATA 16384
SCALARS density double
LOOKUP_TABLE default
0
0
0
0
0
0
0
0
0
0
0
0
0
0
0
0
0
0
0
0
0
0
0
0
0
0
0
0
0
0
0
0
0
0
0
0
0
0
0
0
0
0
0
0
0
0
0
0
0
0
0
0
0
0
0
0
0
0
0
0
0
0
0
0
0
0
0
0
0
0
0
0
0
0
0
0
0
0
0
0
0
0
0
0
0
0
0
0
0
0
0
0
0
0
0
0
0
0
0
0
0
0
0
0
0
0
0
0
0
0
0
0
0
0
0
0
0
0
0
0
0
0
0
0
0
0
0
0
0
0.9996878028295578
0.9996878718999995
0.9996877827897916
0.9996874778584718
0.9996869513668405
0.9996862418214658
0.9996853866560768
0.9996844183036978
0.9996833658697404
0.9996822557469207
0.9996811111364043
0.9996799522148739
0.9996787964746725
0.9996776590424825
0.9996765529411101
0.9996754893344876
0.9996744777524013
0.9996735262921973
0.9996726417981542
0.99967183002151
0.9996710957631277
0.9996704430004945
0.9996698750005523
0.9996693944197359
0.9996690033923858
0.9996687036085812
0.9996684963822847
0.9996683827106174
0.999668363324974
0.9996684387346452
0.9996686092635314
0.9996688750805123
0.9996692362239702
0.9996696926209597
0.9996702441014665
0.9996708904081876
0.9996716312022385
0.9996724660651828
0.9996733944977478
0.9996744159155996
0.9996755296425127
0.9996767349012805
0.9996780308026822
0.9996794163328349
0.999680890339224
0.9996824515157249
0.9996840983868954
0.9996858292918348
0.9996876423678747
0.9996895355343842
0.9996915064769485
0.9996935526321753
0.9996956711733856
0.9996978589974298
0.999700112712865
0.9997024286297209
0.9997048027510756
0.9997072307666417
0.9997097080485708
0.999712229649647
0.9997147903040493
0.9997173844308312
0.999720006140252
0.9997226492430753
0.9997253072629338
0.9997279734518185
0.9997306408087496
0.9997333021016355
0.9997359498923126
0.9997385765647183
0.9997411743561242
0.9997437353913152
0.9997462517195786
0.9997487153543133
0.9997511183150568
0.999753452671678
0.9997557105904566
0.999757884381739
0.9997599665488324
0.9997619498377719
0.99976382728757
0.9997655922805441
0.9997672385923083
0.9997687604409855
0.9997701525352254
0.999771410120589
0.9997725290238837
0.999773505695049
0.9997743372462078
0.9997750214875379
0.9997755569596501
0.9997759429622008
0.9997761795785298
0.9997762676961477
0.9997762090229884
0.9997760060993809
0.9997756623057921
0.999775181866449
0.9997745698490403
0.999773832160766
0.9997729755411044
0.9997720075517222
0.9997709365640539
0.9997697717451401
0.9997685230423874
0.9997672011679675
0.9997658175836109
0.9997643844865673
0.9997629147974734
0.9997614221507805
0.9997599208881323
0.9997584260547117
0.9997569533980115
0.9997555193680246
0.9997541411128259
0.9997528364605076
0.999751623873109
0.999750522393844
0.9997495514703187
0.9997487304764296
0.9997480774913149
0.9997476093216927
0.999747340124514
0.9997472729602569
0.9997473467908432
0.9997474750893781
0
0
0.9996877342365595
0.9996878032785632
0.9996877035196314
0.9996874108960732
0.9996869429103363
0.9996863163733435
0.9996855572023642
0.9996846922171553
0.9996837471718655
0.9996827452504015
0.9996817073349095
0.9996806520263639
0.9996795957420344
0.9996785528541744
0.9996775358824994
0.9996765556810463
0.9996756216145062
0.9996747417223726
0.9996739228710652
0.9996731708929988
0.9996724907127701
0.9996718864611714
0.9996713615777514
0.9996709189027262
0.9996705607589191
0.9996702890244858
0.9996701051970264
0.9996700104497546
0.9996700056802365
0.9996700915522898
0.9996702685314944
0.9996705369148288
0.9996708968548422
0.9996713483788187
0.9996718914033105
0.9996725257444564
0.999673251124428
0.9996740671743921
0.9996749734343102
0.9996759693499313
0.9996770542672875
0.9996782274250204
0.9996794879448333
0.9996808348203808
0.9996822669048759
0.9996837828977065
0.9996853813303356
0.9996870605517564
0.9996888187137651
0.9996906537563178
0.9996925633932158
0.9996945450983653
0.9996965960928623
0.9996987133331184
0.9997008935002731
0.9997031329910884
0.9997054279105566
0.999707774066396
0.9997101669656463
0.9997126018135138
0.9997150735146502
0.9997175766769888
0.9997201056182857
0.9997226543754535
0.9997252167167971
0.9997277861571946
0.9997303559762841
0.9997329192396488
0.9997354688230066
0.9997379974393399
0.999740497668911
0.9997429619920364
0.9997453828244992
0.999747752555409
0.9997500635873295
0.9997523083784042
0.9997544794862531
0.9997565696133044
0.9997585716532726
0.9997604787384062
0.9997622842871646
0.9997639820519115
0.9997655661662561
0.9997670311916038
0.9997683721625454
0.999769584630644
0.9997706647062568
0.9997716090979821
0.9997724151494093
0.9997730808728011
0.9997736049794556
0.9997739869064622
0.9997742268396681
0.9997743257326847
0.9997742853218523
0.999774108137115
0.9997737975088481
0.9997733575707225
0.9997727932587915
0.9997721103070137
0.9997713152395402
0.9997704153601136
0.9997694187390249
0.999768334198093
0.9997671712941913
0.9997659403018422
0.9997646521954151
0.9997633186313686
0.999761951930898
0.9997605650630851
0.9997591716283691
0.9997577858414427
0.9997564225115879
0.99975509701651
0.9997538252654441
0.9997526236423562
0.9997515089087747
0.9997504980071175
0.9997496077646767
0.9997488544727274
0.99974825328154
0.999747815943387
0.9997475474015923
0.9997474410324494
0.9997474737932134
0.9997476014934034
0
0
0.9996878238000759
0.9996879035685446
0.9996878036117369
0.9996875246375266
0.9996870930418071
0.9996865210740918
0.9996858308625246
0.9996850446851084
0.9996841843152372
0.9996832699677209
0.9996823203794469
0.999681352493152
0.9996803814579927
0.9996794207088776
0.9996784820900904
0.9996775759782366
0.9996767114133406
0.999675896229538
0.9996751371805606
0.9996744400573102
0.9996738097969632
0.999673250583396
0.9996727659388192
0.999672358806883
0.9996720316274973
0.9996717864038337
0.9996716247618334
0.9996715480027255
0.9996715571488866
0.9996716529835346
0.999671836084584
0.9996721068531184
0.9996724655367986
0.999672912248629
0.9996734469813904
0.9996740696181255
0.9996747799389789
0.999675577624749
0.9996764622574419
0.999677433318164
0.9996784901826291
0.999679632114599
0.9996808582575256
0.9996821676246892
0.999683559088101
0.9996850313664408
0.9996865830122937
0.9996882123989412
0.9996899177069604
0.9996916969108783
0.9996935477661225
0.9996954677964991
0.9996974542824352
0.9996995042501984
0.9997016144623236
0.9997037814094358
0.9997060013036904
0.9997082700739972
0.9997105833632345
0.9997129365275886
0.9997153246382079
0.9997177424852716
0.9997201845846333
0.9997226451871101
0.9997251182905248
0.9997275976545414
0.9997300768183565
0.9997325491212291
0.9997350077258631
0.9997374456445718
0.9997398557681806
0.9997422308975349
0.999744563777507
0.9997468471333097
0.9997490737089516
0.9997512363075697
0.9997533278334216
0.9997553413352194
0.9997572700505255
0.9997591074508468
0.9997608472871116
0.9997624836351197
0.9997640109406264
0.999765424063634
0.9997667183215418
0.9997678895307238
0.9997689340462027
0.9997698487990155
0.9997706313309703
0.9997712798264372
0.9997717931409351
0.9997721708262328
0.9997724131517975
0.9997725211224124
0.9997724964918943
0.9997723417728374
0.9997720602424378
0.9997716559444426
0.9997711336873919
0.9997704990393279
0.9997697583192486
0.9997689185855865
0.9997679876220934
0.9997669739214657
0.9997658866671421
0.9997647357136087
0.999763531565567
0.9997622853561589
0.9997610088243177
0.9997597142909375
0.9997584146331799
0.9997571232555799
0.9997558540557925
0.9997546213797934
0.9997534399592318
0.99975232482122
0.9997512911692732
0.9997503541790247
0.9997495286532068
0.9997488284255522
0.9997482660215158
0.9997478512463062
0.9997475887828539
0.9997474726765226
0.9997475058926651
0.9997476745373318
0
0
0.9996881298174187
0.9996881974832612
0.9996880829865066
0.9996878030329993
0.9996873850310213
0.9996868444040311
0.999686200270502
0.999685470628003
0.9996846740609371
0.9996838283399344
0.9996829500549042
0.9996820543819076
0.9996811551064685
0.9996802646158506
0.9996793939447011
0.999678552853241
0.9996777499237693
0.9996769926597102
0.9996762875846776
0.9996756403392398
0.9996750557733018
0.9996745380328494
0.9996740906403393
0.9996737165686341
0.9996734183083011
0.9996731979284778
0.9996730571313557
0.9996729973006305
0.9996730195440776
0.9996731247306485
0.999673313522282
0.9996735864008454
0.9996739436904165
0.9996743855753017
0.9996749121140248
0.9996755232496538
0.9996762188167043
0.9996769985449733
0.9996778620605339
0.9996788088842323
0.9996798384279099
0.9996809499886755
0.9996821427414508
0.999683415730092
0.9996847678573101
0.9996861978736739
0.9996877043659211
0.9996892857448385
0.9996909402329359
0.9996926658521642
0.9996944604118906
0.9996963214973696
0.9996982464589235
0.9997002324020386
0.9997022761786012
0.9997043743794529
0.9997065233284756
0.9997087190783699
0.9997109574083213
0.9997132338236887
0.9997155435578945
0.9997178815766146
0.9997202425844218
0.9997226210339514
0.9997250111376956
0.99972740688246
0.9997298020465496
0.999732190219663
0.9997345648255125
0.9997369191471002
0.9997392463546093
0.9997415395357808
0.9997437917286793
0.999745995956653
0.9997481452653404
0.9997502327614561
0.9997522516531642
0.9997541952917071
0.9997560572140457
0.9997578311861427
0.999759511246591
0.9997610917501923
0.9997625674111554
0.9997639333455055
0.9997651851123627
0.9997663187536782
0.9997673308321078
0.9997682184666231
0.9997689793655778
0.999769611856879
0.9997701149150339
0.9997704881847846
0.99977073200119
0.9997708474059468
0.999770836159899
0.9997707007516411
0.999770444402262
0.9997700710662455
0.9997695854286839
0.9997689928989193
0.9997682996008785
0.9997675123602918
0.9997666386891331
0.9997656867675137
0.9997646654233744
0.9997635841101671
0.9997624528827531
0.9997612823715039
0.9997600837545019
0.999758868727342
0.99975764946962
0.9997564386061785
0.9997552491607264
0.9997540944985178
0.9997529882531034
0.9997519442199151
0.9997509762060687
0.9997500978292122
0.9997493223105771
0.9997486619890342
0.9997481277079433
0.9997477277585343
0.9997474693062756
0.9997473546611606
0.9997473998576761
0.9997476092108322
0
0
0.9996886595297566
0.9996886685152957
0.9996885160141783
0.9996882195633472
0.999687799579051
0.9996872723839945
0.999686654803146
0.9996859626748589
0.9996852120743059
0.9996844183512321
0.9996835960411523
0.9996827586686365
0.9996819186561918
0.9996810872724393
0.9996802746552604
0.9996794898574003
0.9996787409074096
0.9996780348804982
0.9996773779753908
0.9996767755923626
0.9996762324096581
0.9996757524569833
0.9996753391849161
0.9996749955297313
0.999674723973099
0.9996745265966442
0.9996744051311901
0.9996743610008966
0.9996743953622802
0.9996745091384287
0.9996747030484858
0.9996749776327654
0.9996753332736135
0.9996757702123916
0.9996762885627247
0.999676888320389
0.9996775693699916
0.9996783314888058
0.9996791743479345
0.999680097511133
0.9996811004314865
0.999682182446245
0.9996833427700172
0.9996845804866166
0.999685894539752
0.9996872837228518
0.9996887466682051
0.999690281835696
0.9996918875013212
0.9996935617457424
0.9996953024430706
0.9996971072501106
0.999698973596271
0.9997008986743384
0.9997028794323277
0.9997049125665838
0.9997069945163382
0.9997091214598757
0.9997112893125021
0.9997134937264432
0.9997157300928445
0.9997179935459776
0.9997202789697922
0.999722581006887
0.9997248940700078
0.999727212356095
0.999729529862962
0.9997318404085718
0.9997341376529439
0.9997364151226105
0.9997386662376003
0.9997408843408079
0.9997430627296752
0.9997451946899806
0.9997472735316031
0.9997492926260002
0.9997512454452131
0.9997531256020745
0.9997549268913922
0.9997566433317329
0.9997582692075367
0.9997597991111551
0.9997612279845145
0.99976255115998
0.9997637644001114
0.9997648639358864
0.9997658465030936
0.9997667093764897
0.999767450401458
0.9997680680228044
0.9997685613104831
0.9997689299819497
0.9997691744210081
0.9997692956929349
0.99976929555583
0.9997691764680778
0.9997689415919633
0.9997685947934285
0.9997681406381135
0.9997675843837531
0.9997669319691677
0.999766189999985
0.9997653657313817
0.9997644670480046
0.9997635024413405
0.9997624809846455
0.999761412305556
0.9997603065562733
0.9997591743810945
0.9997580268806526
0.9997568755720543
0.9997557323433276
0.9997546093996157
0.9997535191967468
0.9997524743600009
0.9997514875827961
0.9997505714960303
0.9997497384690345
0.9997490004050864
0.9997483684756593
0.999747852956745
0.999747462425558
0.9997472058446208
0.9997470908123027
0.9997471333119864
0.9997473450990331
0
0
0.999689376348296
0.999689301275637
0.9996890916006689
0.9996887598485658
0.9996883213802623
0.999687791143352
0.9996871836352196
0.9996865128305906
0.9996857924985595
0.9996850359114223
0.9996842557898028
0.999683464070332
0.9996826718087923
0.9996818891373059
0.9996811252576988
0.9996803884544175
0.9996796861308574
0.9996790248596182
0.9996784104398485
0.9996778479580961
0.9996773418502514
0.9996768959628678
0.9996765136121825
0.9996761976401469
0.99967595046667
0.9996757741379216
0.9996756703702847
0.9996756405900761
0.9996756859688557
0.9996758074545806
0.9996760057985569
0.9996762815785074
0.9996766352177848
0.9996770670010786
0.999677577086687
0.9996781655157114
0.9996788322182721
0.9996795770170975
0.9996803996286048
0.9996812996618121
0.9996822766152186
0.9996833298719677
0.9996844586934464
0.999685662211621
0.9996869394202693
0.999688289165388
0.9996897101349443
0.9996912008482399
0.9996927596450531
0.9996943846748159
0.9996960738859918
0.9996978250158989
0.999699635581145
0.999701502868895
0.9997034239291487
0.9997053955682179
0.9997074143435873
0.9997094765603185
0.9997115782691729
0.9997137152665919
0.999715883096696
0.9997180770553996
0.9997202921967953
0.9997225233418643
0.9997247650896283
0.9997270118307721
0.9997292577638055
0.9997314969137477
0.9997337231533637
0.9997359302268731
0.9997381117761184
0.999740261369053
0.9997423725304799
0.9997444387748415
0.9997464536409417
0.9997484107283277
0.9997503037351714
0.9997521264973166
0.9997538730282817
0.99975553755984
0.9997571145829205
0.999758598888423
0.9997599856076611
0.9997612702520032
0.9997624487514201
0.9997635174915027
0.9997644733486726
0.9997653137231655
0.9997660365695393
0.9997666404243323
0.9997671244306702
0.9997674883595106
0.9997677326273938
0.999767858310467
0.9997678671547345
0.9997677615823937
0.9997675446943013
0.9997672202685213
0.9997667927550928
0.9997662672670526
0.9997656495679281
0.9997649460557941
0.9997641637441499
0.9997633102397218
0.9997623937174265
0.9997614228925248
0.9997604069900671
0.9997593557114588
0.9997582791979562
0.9997571879904501
0.9997560929846852
0.9997550053805977
0.9997539366245581
0.9997528983414403
0.9997519022522515
0.9997509600730986
0.9997500834058141
0.9997492836020918
0.9997485716049203
0.9997479577298407
0.999747451783781
0.9997470628617187
0.9997468006890898
0.9997466752429975
0.9997466999779933
0.9997468860351841
0
0
0.9996902448952275
0.9996900713944648
0.9996897888344928
0.9996894057948107
0.9996889345658245
0.9996883871506222
0.9996877756623839
0.9996871121598851
0.999686408446073
0.9996856759922419
0.9996849258200038
0.9996841683538746
0.9996834133440601
0.9996826698041865
0.9996819459816553
0.9996812493569867
0.9996805866634911
0.9996799639190864
0.9996793864669735
0.9996788590223035
0.9996783857216053
0.9996779701730717
0.9996776155059932
0.999677324418578
0.999677099223121
0.9996769418882624
0.9996768540777536
0.9996768371857794
0.9996768923685171
0.999677020572144
0.9996772225571317
0.999677498919122
0.9996778501063219
0.9996782764337533
0.9996787780943489
0.9996793551672593
0.9996800076233889
0.9996807353285292
0.9996815380441435
0.9996824154261482
0.9996833670217776
0.9996843922648578
0.9996854904695955
0.9996866608231887
0.9996879023773769
0.9996892140392305
0.9996905945612962
0.9996920425313854
0.9996935563621379
0.9996951342806191
0.999696774318104
0.9996984743002794
0.9997002318380271
0.9997020443189989
0.9997039089001561
0.9997058225014572
0.9997077818008667
0.9997097832308536
0.9997118229765367
0.9997138969756285
0.9997160009203178
0.9997181302612144
0.9997202802134757
0.9997224457652064
0.9997246216882221
0.9997268025512239
0.9997289827354455
0.9997311564527693
0.9997333177663313
0.999735460613554
0.9997375788315848
0.9997396661850204
0.9997417163958356
0.9997437231753397
0.9997456802580271
0.9997475814370801
0.9997494206013369
0.9997511917734286
0.99975288914885
0.9997545071356101
0.9997560403941993
0.9997574838774723
0.9997588328701585
0.9997600830275821
0.9997612304132829
0.9997622715351235
0.9997632033795839
0.9997640234438349
0.9997647297653371
0.9997653209485804
0.9997657961887687
0.99976615529212
0.9997663986926577
0.9997665274652379
0.9997665433347692
0.9997664486814547
0.9997662465421118
0.9997659406074788
0.9997655352156549
0.999765035341664
0.9997644465833567
0.9997637751437028
0.9997630278097192
0.9997622119280947
0.9997613353777414
0.999760406539263
0.9997594342614597
0.9997584278246678
0.9997573969008052
0.9997563515096414
0.9997553019707583
0.999754258849981
0.9997532328991622
0.9997522349883721
0.9997512760301853
0.9997503668908314
0.9997495182908542
0.9997487407010404
0.9997480442677379
0.9997474387033977
0.9997469333992983
0.9997465375034994
0.9997462604698094
0.9997461121030414
0.9997461044584657
0.9997462462663349
0
0
0.9996912347450547
0.9996909535517624
0.9996905865766468
0.9996901403105272
0.9996896240665173
0.9996890471246129
0.9996884194854317
0.999687751229476
0.999687052347174
0.999686332635159
0.9996856015554224
0.9996848681352379
0.9996841408804094
0.9996834277093978
0.9996827359199276
0.9996820721774149
0.9996814425194769
0.9996808523741956
0.9996803065884124
0.9996798094625966
0.9996793647893493
0.9996789758940321
0.9996786456756855
0.9996783766473696
0.9996781709747637
0.9996780305127275
0.9996779568391044
0.9996779512857731
0.999678014966511
0.9996781488018509
0.9996783535406673
0.9996786297787784
0.9996789779744125
0.9996793984608648
0.9996798914562763
0.9996804570708832
0.9996810953117076
0.999681806085053
0.9996825891968067
0.9996834443509011
0.9996843711459724
0.9996853690705506
0.9996864374968364
0.9996875756733943
0.9996887827168268
0.9996900576027457
0.9996913991561197
0.9996928060412955
0.9996942767517907
0.9996958096001323
0.9996974027078531
0.9996990539959069
0.9997007611756151
0.999702521740395
0.9997043329583879
0.9997061918662125
0.9997080952639757
0.9997100397117316
0.9997120215275246
0.9997140367871823
0.9997160813259878
0.9997181507423618
0.9997202404036684
0.9997223454542449
0.9997244608257428
0.9997265812498354
0.9997287012733529
0.9997308152758465
0.999732917489608
0.9997350020220859
0.9997370628806835
0.9997390939998188
0.999741089270175
0.9997430425699694
0.9997449477981045
0.9997467989089716
0.9997485899487236
0.9997503150927087
0.9997519686838582
0.9997535452716504
0.9997550396514043
0.999756446903495
0.9997577624322066
0.9997589820037949
0.9997601017834609
0.9997611183708017
0.9997620288334507
0.9997628307384836
0.9997635221813326
0.9997641018118163
0.9997645688570898
0.9997649231411647
0.9997651651008745
0.999765295798016
0.9997653169276138
0.9997652308221294
0.9997650404516495
0.9997647494199571
0.9997643619566172
0.9997638829050496
0.9997633177067909
0.9997626723819841
0.999761953506327
0.9997611681845313
0.9997603240205205
0.9997594290843538
0.9997584918760325
0.9997575212860433
0.9997565265525928
0.9997555172151382
0.9997545030639878
0.9997534940854238
0.9997525004017154
0.9997515322048536
0.999750599685129
0.9997497129557574
0.99974888197518
0.9997481164648265
0.9997474258618622
0.9997468192920133
0.9997463056347502
0.9997458936376896
0.9997455921883988
0.9997454099454194
0.999745357344622
0.9997454416424739
0
0
0.9996923185451208
0.9996919232743278
0.999691463982907
0.9996909454933135
0.9996903743188121
0.9996897576952181
0.9996891036271187
0.9996884203204649
0.9996877160993114
0.999686999209357
0.9996862776828418
0.9996855592410989
0.9996848512078262
0.9996841604492127
0.9996834933351343
0.9996828557182558
0.9996822529296545
0.9996816897878552
0.9996811706170285
0.9996806992721067
0.999680279168334
0.9996799133137326
0.9996796043425552
0.9996793545489523
0.9996791659196137
0.9996790401650802
0.9996789787489001
0.9996789829146224
0.9996790537100932
0.9996791920092276
0.9996793985309037
0.9996796738552657
0.9996800184371987
0.9996804326173138
0.999680916630296
0.9996814706109818
0.9996820945980605
0.9996827885357906
0.9996835522736592
0.9996843855643655
0.9996852880600994
0.99968625930748
0.9996872987411458
0.999688405676353
0.9996895793005953
0.9996908186645787
0.999692122672595
0.9996934900725987
0.9996949194460536
0.99969640919784
0.9996979575462972
0.9996995625136791
0.9997012219171133
0.9997029333603161
0.999704694226168
0.9997065016703888
0.9997083526164114
0.9997102437516814
0.9997121715254778
0.9997141321484562
0.9997161215940124
0.999718135601626
0.9997201696822794
0.999722219126068
0.9997242790120837
0.9997263442206409
0.9997284094478962
0.9997304692228854
0.999732517926991
0.9997345498158057
0.9997365590433602
0.9997385396886228
0.9997404857841864
0.999742391346983
0.9997442504108959
0.9997460570610346
0.9997478054694947
0.9997494899323057
0.9997511049073403
0.9997526450528283
0.9997541052662117
0.9997554807229394
0.999756766914911
0.999757959688134
0.9997590552792993
0.9997600503508206
0.9997609420240623
0.9997617279102984
0.9997624061391632
0.9997629753841717
0.999763434885111
0.9997637844669431
0.9997640245550845
0.9997641561867753
0.9997641810184825
0.9997641013291415
0.9997639200192612
0.9997636406057894
0.9997632672128521
0.9997628045583364
0.9997622579365163
0.9997616331967353
0.9997609367184036
0.99976017538234
0.9997593565387211
0.9997584879716378
0.999757577860464
0.9997566347379573
0.9997556674451932
0.9997546850831224
0.999753696960662
0.9997527125390592
0.9997517413727929
0.9997507930468443
0.9997498771106027
0.9997490030100303
0.9997481800245637
0.9997474172087185
0.999746723353836
0.9997461069795452
0.9997455763631857
0.9997451395543527
0.9997448046469097
0.9997445792267793
0.9997444717012496
0.9997444881616053
0
0
0.9996934712588477
0.9996929583214085
0.9996924014569236
0.9996918039423645
0.99969117015575
0.9996905056340996
0.9996898165532397
0.9996891094844627
0.9996883912226042
0.9996876685807367
0.999686948269963
0.9996862367936687
0.9996855403646235
0.9996848648457567
0.9996842157077053
0.9996835980041364
0.9996830163616698
0.9996824749815245
0.9996819776500477
0.999681527756426
0.9996811283149977
0.9996807819908425
0.9996804911268481
0.9996802577715653
0.9996800837065599
0.9996799704729737
0.9996799193964067
0.9996799316101259
0.9996800080759837
0.9996801496032267
0.9996803568647665
0.9996806304112045
0.9996809706823004
0.9996813780162443
0.9996818526565074
0.9996823947566535
0.9996830043829551
0.9996836815152083
0.9996844260456235
0.9996852377761927
0.9996861164144485
0.9996870615679956
0.9996880727377655
0.999689149310359
0.9996902905494547
0.9996914955866271
0.9996927634115831
0.9996940928621336
0.9996954826139345
0.9996969311703017
0.9996984368521452
0.9996999977883148
0.9997016119064145
0.9997032769243692
0.999704990342802
0.999706749438499
0.9997085512590267
0.9997103926187472
0.9997122700963155
0.9997141800338705
0.9997161185380093
0.9997180814827141
0.9997200645143213
0.9997220630586727
0.9997240723305029
0.9997260873451679
0.9997281029327536
0.9997301137545985
0.9997321143222471
0.9997340990188092
0.9997360621226915
0.9997379978336255
0.9997399003008948
0.9997417636536254
0.9997435820329931
0.999745349626132
0.9997470607015543
0.9997487096457972
0.9997502910010552
0.9997517995034523
0.9997532301216795
0.9997545780955949
0.9997558389744852
0.9997570086545569
0.9997580834153375
0.9997590599545438
0.9997599354211089
0.9997607074459216
0.9997613741700101
0.9997619342697489
0.9997623869788687
0.9997627321069024
0.9997629700539187
0.9997631018212452
0.9997631290181125
0.9997630538640129
0.9997628791867936
0.9997626084163612
0.9997622455741227
0.999761795258111
0.9997612626240017
0.9997606533620376
0.9997599736701257
0.999759230223152
0.999758430138801
0.9997575809399258
0.9997566905137328
0.9997557670677744
0.9997548190829658
0.9997538552635903
0.9997528844845065
0.9997519157354678
0.999750958062925
0.9997500205099258
0.9997491120553597
0.9997482415532175
0.9997474176762693
0.9997466488684613
0.9997459433099275
0.9997453088973329
0.9997447532617495
0.9997442837038764
0.9997439073584623
0.9997436308418531
0.999743460758332
0.999743401997746
0
0
0.9996946705450204
0.9996940383241066
0.9996933804880395
0.9996926990604635
0.9996919968476966
0.99969127787601
0.9996905467723513
0.9996898086798606
0.9996890690009587
0.9996883332468719
0.9996876069126048
0.9996868953706566
0.9996862037922533
0.9996855370880524
0.9996848998653649
0.9996842964014288
0.9996837306291203
0.9996832061336718
0.9996827261578399
0.9996822936139067
0.999681911100171
0.999681580920951
0.9996813051083222
0.9996810854449995
0.9996809234870602
0.9996808205862802
0.9996807779111574
0.9996807964666473
0.9996808771119322
0.9996810205764326
0.9996812274735603
0.9996814983125277
0.9996818335078375
0.9996822333868299
0.9996826981950012
0.9996832280994989
0.9996838231905754
0.9996844834814089
0.9996852089061294
0.9996859993164545
0.9996868544768083
0.9996877740583192
0.9996887576316025
0.9996898046587154
0.9996909144842048
0.9996920863256334
0.9996933192635251
0.9996946122310938
0.9996959640037256
0.999697373188564
0.9996988382141854
0.9997003573206958
0.9997019285502684
0.9997035497384181
0.9997052185060626
0.9997069322526474
0.9997086881503908
0.99971048313991
0.9997123139272883
0.9997141769828315
0.9997160685415611
0.9997179846056635
0.9997199209489522
0.9997218731235056
0.9997238364685357
0.9997258061216023
0.9997277770322034
0.9997297439778027
0.999731701582294
0.9997336443369081
0.9997355666235084
0.9997374627402249
0.9997393269293219
0.9997411534071732
0.9997429363961937
0.9997446701585265
0.9997463490312798
0.9997479674630403
0.999749520051414
0.9997510015812505
0.9997524070632613
0.9997537317726356
0.9997549712873349
0.9997561215256312
0.9997571787825562
0.9997581397648071
0.9997590016237909
0.9997597619863474
0.9997604189828646
0.9997609712723576
0.9997614180642741
0.9997617591366439
0.999761994850416
0.9997621261596634
0.9997621546175874
0.9997620823780924
0.9997619121929522
0.9997616474044343
0.999761291933504
0.9997608502635533
0.9997603274198754
0.9997597289448953
0.9997590608694517
0.9997583296801882
0.9997575422833832
0.999756705965304
0.9997558283494196
0.9997549173505551
0.9997539811263215
0.9997530280258831
0.999752066536469
0.9997511052278448
0.9997501526952676
0.9997492175014109
0.9997483081187659
0.9997474328738325
0.9997465998950174
0.9997458170671064
0.9997450919953943
0.9997444319690006
0.9997438439569009
0.9997433345438956
0.9997429099370906
0.9997425757916603
0.9997423373134758
0.9997421983029159
0
0
0.9996958965283619
0.9996951447030408
0.999694383911703
0.9996936152405563
0.9996928402612321
0.9996920617226627
0.999691282964026
0.9996905078604261
0.9996897405748645
0.9996889854442262
0.9996882468474849
0.999687529110783
0.9996868364319289
0.9996861728227111
0.9996855420670402
0.9996849476932219
0.9996843929574847
0.9996838808376968
0.9996834140346724
0.9996829949798911
0.9996826258475423
0.9996823085700856
0.9996820448555969
0.9996818362064681
0.9996816839381457
0.999681589197785
0.9996815529818234
0.9996815761525816
0.9996816594531357
0.9996818035207271
0.999682008898132
0.9996822760433505
0.999682605337169
0.999682997089007
0.9996834515406962
0.9996839688686342
0.9996845491840205
0.9996851925316307
0.9996858988868917
0.9996866681517
0.9996875001487974
0.9996883946151346
0.999689351194062
0.9996903694267782
0.9996914487428983
0.9996925884505539
0.9996937877259235
0.9996950456025828
0.999696360960602
0.9996977325157622
0.9996991588088489
0.9997006381953685
0.9997021688356766
0.9997037486858494
0.9997053754892979
0.9997070467694462
0.9997087598234933
0.9997105117175495
0.9997122992831832
0.9997141191156476
0.9997159675738265
0.9997178407821364
0.9997197346344224
0.999721644800047
0.9997235667322021
0.9997254956785943
0.9997274266945113
0.9997293546583643
0.9997312742896902
0.9997331801696416
0.9997350667639039
0.999736928448006
0.9997387595349115
0.9997405543047815
0.9997423070367443
0.9997440120424905
0.9997456637014674
0.9997472564974199
0.9997487850560015
0.9997502441831281
0.9997516289037648
0.9997529345007493
0.9997541565533191
0.9997552909748971
0.9997563340497947
0.9997572824683602
0.9997581333602411
0.9997588843252893
0.9997595334618001
0.9997600793916491
0.9997605212820658
0.999760858863656
0.9997610924444874
0.9997612229199253
0.9997612517781188
0.999761181100909
0.9997610135601768
0.999760752409477
0.999760401471096
0.999759965118471
0.9997594482542034
0.99975885628369
0.9997581950846889
0.9997574709729008
0.9997566906639515
0.9997558612318884
0.9997549900646157
0.999754084816404
0.9997531533579396
0.9997522037240774
0.9997512440598174
0.9997502825647993
0.9997493274370781
0.9997483868166827
0.9997474687300164
0.9997465810362905
0.9997457313772617
0.9997449271304026
0.9997441753693274
0.9997434828199765
0.9997428558243708
0.9997423002914826
0.9997418216279139
0.9997414246125927
0.9997411133489255
0.9997408907810073
0
0
0.9996971314236508
0.9996962605333337
0.9996953958738298
0.9996945378125635
0.9996936869274476
0.999692844925073
0.9996920140494141