# vtk DataFile Version 2.0
2D-ADE data file 
ASCII
DATASET RECTILINEAR_GRID
DIMENSIONS 128 128 1 
X_COORDINATES 128 int
0 1 2 3 4 5 6 7 8 9 10 11 12 13 14 15 16 17 18 19 20 21 22 23 24 25 26 27 28 29 30 31 32 33 34 35 36 37 38 39 40 41 42 43 44 45 46 47 48 49 50 51 52 53 54 55 56 57 58 59 60 61 62 63 64 65 66 67 68 69 70 71 72 73 74 75 76 77 78 79 80 81 82 83 84 85 86 87 88 89 90 91 92 93 94 95 96 97 98 99 100 101 102 103 104 105 106 107 108 109 110 111 112 113 114 115 116 117 118 119 120 121 122 123 124 125 126 127 
Y_COORDINATES 128 int
0 1 2 3 4 5 6 7 8 9 10 11 12 13 14 15 16 17 18 19 20 21 22 23 24 25 26 27 28 29 30 31 32 33 34 35 36 37 38 39 40 41 42 43 44 45 46 47 48 49 50 51 52 53 54 55 56 57 58 59 60 61 62 63 64 65 66 67 68 69 70 71 72 73 74 75 76 77 78 79 80 81 82 83 84 85 86 87 88 89 90 91 92 93 94 95 96 97 98 99 100 101 102 103 104 105 106 107 108 109 110 111 112 113 114 115 116 117 118 119 120 121 122 123 124 125 126 127 
Z_COORDINATES 1 int
0
POINT_DATA 16384
SCALARS density double
LOOKUP_TABLE default
0
0
0
0
0
0
0
0
0
0
0
0
0
0
0
0
0
0
0
0
0
0
0
0
0
0
0
0
0
0
0
0
0
0
0
0
0
0
0
0
0
0
0
0
0
0
0
0
0
0
0
0
0
0
0
0
0
0
0
0
0
0
0
0
0
0
0
0
0
0
0
0
0
0
0
0
0
0
0
0
0
0
0
0
0
0
0
0
0
0
0
0
0
0
0
0
0
0
0
0
0
0
0
0
0
0
0
0
0
0
0
0
0
0
0
0
0
0
0
0
0
0
0
0
0
0
0
0
0
0.999687425456278
0.9996874697042408
0.999687370214952
0.999687083130035
0.9996866087548778
0.999685983018365
0.9996852398500607
0.9996844080665275
0.9996835132089178
0.99968257819691
0.9996816230272753
0.9996806649864068
0.999679718993205
0.9996787979028907
0.9996779127515197
0.9996770729784511
0.9996762866262796
0.9996755605172242
0.9996749004077995
0.9996743111251335
0.9996737966872238
0.9996733604090312
0.9996730049960143
0.999672732626555
0.9996725450244557
0.9996724435225604
0.9996724291183594
0.9996725025223696
0.9996726641999425
0.9996729144071081
0.9996732532209759
0.9996736805651724
0.9996741962307443
0.9996747998929271
0.9996754911241383
0.9996762694035395
0.9996771341234781
0.9996780845931145
0.999679120039507
0.9996802396064364
0.9996814423512087
0.9996827272396989
0.9996840931398626
0.9996855388139472
0.9996870629096244
0.9996886639502591
0.9996903403245245
0.9996920902755715
0.9996939118899462
0.9996958030864599
0.999697761605198
0.9996997849968551
0.9997018706125886
0.9997040155945606
0.9997062168673506
0.9997084711304062
0.9997107748516981
0.9997131242627378
0.9997155153551107
0.9997179438786661
0.9997204053415041
0.9997228950118733
0.9997254079221092
0.9997279388746897
0.9997304824505227
0.9997330330195039
0.9997355847534252
0.9997381316412454
0.9997406675067542
0.9997431860286077
0.9997456807627152
0.9997481451669143
0.9997505726278655
0.9997529564900492
0.9997552900867552
0.9997575667728865
0.9997597799594217
0.9997619231493161
0.999763989974628
0.9997659742346107
0.999767869934516
0.9997696713248202
0.9997713729405752
0.9997729696405816
0.9997744566460709
0.9997758295785756
0.9997770844966846
0.9997782179313612
0.9997792269195519
0.9997801090357861
0.9997808624215329
0.9997814858120738
0.9997819785607132
0.9997823406601625
0.9997825727609986
0.9997826761871363
0.9997826529483106
0.9997825057496281
0.9997822379983106
0.9997818538078128
0.9997813579995889
0.9997807561028321
0.9997800543526205
0.9997792596869527
0.9997783797432634
0.9997774228550815
0.9997763980495732
0.9997753150467777
0.99977418426141
0.9997730168081241
0.9997718245110506
0.9997706199182848
0.9997694163217787
0.9997682277831176
0.9997670691620286
0.9997659561418701
0.9997649052431369
0.9997639338492926
0.9997630601625516
0.9997623029294351
0.9997616805515401
0.9997612112826919
0.9997609127953944
0.9997607956743337
0.9997608185465346
0.9997609129097572
0
0
0.9996873698363591
0.9996874172979318
0.9996873144959035
0.9996870442155167
0.9996866258847816
0.9996860762510784
0.9996854192779583
0.9996846790684252
0.999683878398705
0.99968303754719
0.9996821746332035
0.9996813056958128
0.9996804448215371
0.9996796042943119
0.9996787947819772
0.9996780255103026
0.9996773044227575
0.9996766383261583
0.9996760330233515
0.9996754934328237
0.9996750236959523
0.9996746272729751
0.9996743070286028
0.9996740653082518
0.9996739040056462
0.9996738246226208
0.9996738283217229
0.9996739159723014
0.9996740881905611
0.999674345374141
0.9996746877316164
0.9996751153073947
0.9996756280023265
0.9996762255904488
0.9996769077321375
0.9996776739840202
0.9996785238059067
0.9996794565650524
0.9996804715379762
0.9996815679101256
0.9996827447735931
0.9996840011231519
0.9996853358508043
0.9996867477390862
0.9996882354533191
0.99968979753303
0.9996914323827285
0.9996931382622538
0.999694913276856
0.9996967553672351
0.9996986622996877
0.9997006316565664
0.9997026608272155
0.9997047469995577
0.9997068871525029
0.9997090780493341
0.9997113162322402
0.9997135980181292
0.9997159194958887
0.9997182765252026
0.9997206647370812
0.9997230795361923
0.9997255161051273
0.999727969410671
0.9997304342121762
0.999732905072087
0.9997353763686814
0.999737842311034
0.9997402969562471
0.9997427342288938
0.9997451479426915
0.9997475318243041
0.9997498795392389
0.9997521847196976
0.9997544409942952
0.9997566420194607
0.9997587815123838
0.9997608532852813
0.9997628512807963
0.9997647696082658
0.9997666025806395
0.9997683447517391
0.9997699909536186
0.9997715363337025
0.9997729763914315
0.9997743070140952
0.9997755245115819
0.9997766256497274
0.999777607682022
0.9997784683793747
0.9997792060577422
0.9997798196033633
0.9997803084954665
0.9997806728262604
0.9997809133181501
0.9997810313380773
0.9997810289090239
0.9997809087186788
0.9997806741254154
0.9997803291617026
0.9997798785352071
0.9997793276278419
0.9997786824931425
0.9997779498523395
0.999777137089632
0.9997762522471266
0.9997753040200298
0.9997743017525891
0.9997732554353547
0.9997721757041202
0.9997710738408714
0.999769961776556
0.9997688520948429
0.9997677580344893
0.9997666934882532
0.9997656729927236
0.9997647116956059
0.99976382524968
0.9997630296383038
0.9997623409109612
0.9997617748636988
0.9997613452453421
0.9997610611277314
0.9997609220659092
0.9997609173032574
0.9997610131037078
0
0
0.9996874603129569
0.9996875146238511
0.9996874127488435
0.9996871572401663
0.9996867735618533
0.9996862740363949
0.9996856790811641
0.9996850087770176
0.9996842824653598
0.9996835179146228
0.9996827314587978
0.9996819377741417
0.9996811499188165
0.9996803794285641
0.9996796364419138
0.9996789298187646
0.9996782672615501
0.999677655432706
0.9996771000651192
0.9996766060640098
0.9996761776002347
0.9996758181952982
0.9996755307982266
0.999675317854836
0.9996751813697359
0.9996751229616764
0.9996751439125754
0.9996752452107944
0.9996754275889616
0.9996756915568557
0.9996760374296106
0.9996764653516947
0.9996769753168974
0.9996775671847187
0.9996782406933815
0.999678995469813
0.999679831036792
0.9996807468175894
0.999681742138272
0.999682816227973
0.9996839682172921
0.9996851971351004
0.9996865019039125
0.9996878813340729
0.999689334116925
0.999690858817183
0.9996924538646803
0.9996941175456913
0.9996958479940065
0.9996976431819422
0.9996995009114578
0.9997014188055563
0.9997033943001336
0.9997054246364439
0.9997075068543397
0.9997096377864423
0.9997118140533943
0.9997140320603333
0.9997162879947344
0.9997185778257374
0.9997208973050951
0.9997232419698373
0.9997256071467717
0.9997279879588846
0.9997303793337435
0.9997327760139376
0.9997351725696205
0.9997375634131632
0.9997399428159495
0.9997423049272709
0.9997446437953282
0.9997469533902454
0.9997492276290606
0.9997514604025578
0.9997536456038589
0.9997557771585902
0.9997578490565031
0.9997598553843148
0.9997617903596141
0.9997636483655528
0.999765423986135
0.9997671120417921
0.9997687076250338
0.9997702061358359
0.9997716033165477
0.999772895285969
0.9997740785723817
0.9997751501451936
0.9997761074450005
0.9997769484117501
0.9997776715108453
0.9997782757569225
0.999778760735191
0.9997791266201386
0.9997793741915543
0.9997795048477545
0.9997795206160581
0.9997794241604754
0.9997792187867648
0.9997789084449192
0.99977849772934
0.999777991876855
0.999777396762942
0.999776718896399
0.9997759654128914
0.9997751440676673
0.9997742632278802
0.9997733318647677
0.9997723595459954
0.9997713564281165
0.9997703332489937
0.9997693013194564
0.9997682725131161
0.9997672592507141
0.9997662744737871
0.9997653316000523
0.9997644444625795
0.9997636271867849
0.9997628939620229
0.9997622585857687
0.9997617342751146
0.9997613325248057
0.9997610613865728
0.9997609197849476
0.9997609160258392
0.9997610414198604
0
0
0.9996877425497276
0.9996877802391643
0.9996876633959134
0.9996874076713279
0.9996870373185925
0.9996865667141722
0.9996860132680722
0.9996853931901757
0.9996847229894429
0.9996840183055626
0.9996832936336827
0.9996825621592816
0.999681835805527
0.9996811252472447
0.99968043996583
0.9996797883278103
0.9996791776753711
0.9996786144162706
0.9996781041116188
0.9996776515601443
0.9996772608774845
0.9996769355698526
0.9996766786016689
0.9996764924573672
0.9996763791973166
0.9996763405082494
0.9996763777482683
0.9996764919868966
0.999676684040282
0.9996769545020185
0.9996773037697152
0.999677732067738
0.9996782394662624
0.9996788258970339
0.9996794911659537
0.9996802349628762
0.9996810568687213
0.9996819563602516
0.9996829328126327
0.9996839855000849
0.9996851135947484
0.9996863161640528
0.9996875921667008
0.9996889404475464
0.999690359731477
0.9996918486165551
0.9996934055665386
0.9996950289030133
0.9996967167972621
0.9996984672620866
0.999700278143709
0.9997021471139546
0.9997040716628449
0.9997060490917857
0.9997080765074788
0.9997101508167292
0.9997122687222735
0.9997144267197763
0.9997166210961274
0.9997188479291563
0.9997211030888903
0.9997233822404527
0.9997256808487069
0.9997279941847178
0.9997303173341234
0.9997326452074435
0.9997349725524055
0.9997372939682688
0.9997396039222051
0.9997418967676697
0.9997441667647884
0.9997464081026518
0.9997486149235025
0.99975078134866
0.9997529015061295
0.9997549695596927
0.9997569797393839
0.9997589263731109
0.9997608039192823
0.9997626070001581
0.99976433043576
0.9997659692780233
0.9997675188450023
0.9997689747547887
0.9997703329589478
0.9997715897751179
0.9997727419185855
0.9997737865324825
0.9997747212164416
0.9997755440533782
0.9997762536342679
0.999776849080634
0.9997773300646576
0.9997776968266912
0.9997779501901533
0.9997780915736523
0.9997781230004011
0.9997780471048515
0.9997778671367006
0.9997775869622755
0.9997772110635449
0.9997767445348384
0.9997761930775976
0.9997755629932947
0.9997748611748832
0.99977409509692
0.9997732728046783
0.9997724029022846
0.9997714945399999
0.9997705574003595
0.9997696016827483
0.9997686380850267
0.9997676777806296
0.9997667323887709
0.999765813934515
0.9997649347844261
0.999764107548436
0.9997633449396823
0.9997626596410427
0.999762063935412
0.9997615692256051
0.9997611850562679
0.9997609204459573
0.9997607803498223
0.9997607812723437
0.9997609298970693
0
0
0.9996882139171324
0.9996881952236405
0.9996880429210301
0.9996877722829027
0.9996874006037884
0.9996869425605057
0.9996864131440064
0.9996858264648129
0.9996851967329409
0.9996845374401506
0.9996838612912894
0.999683180053511
0.9996825044938776
0.9996818443494787
0.9996812083586393
0.9996806043085409
0.9996800390934667
0.9996795187796195
0.9996790486733658
0.9996786333892468
0.9996782769155704
0.9996779826768444
0.9996777535921786
0.9996775921295168
0.9996775003552707
0.9996774799795796
0.9996775323970363
0.9996776587232347
0.9996778598270817
0.9996781363592895
0.9996784887770375
0.999678917365227
0.9996794222543468
0.9996800034353567
0.9996806607716242
0.9996813940083011
0.999682202779182
0.9996830866114074
0.9996840449280665
0.9996850770490306
0.9996861821900855
0.9996873594606658
0.9996886078602679
0.9996899262738278
0.9996913134661395
0.9996927680755816
0.9996942886072411
0.9996958734256765
0.9996975207474187
0.9996992286334329
0.9997009949816464
0.9997028175197522
0.9997046937983922
0.9997066211849127
0.9997085968578084
0.99971061780202
0.9997126808052055
0.9997147824551322
0.9997169191383067
0.9997190870399651
0.9997212821455406
0.9997235002436992
0.9997257369310519
0.9997279876186089
0.9997302475400631
0.9997325117619352
0.9997347751956515
0.9997370326115452
0.9997392786548257
0.9997415078634652
0.9997437146880153
0.9997458935132609
0.9997480386816885
0.999750144518622
0.9997522053589748
0.9997542155754192
0.9997561696078906
0.9997580619941714
0.9997598874014461
0.9997616406585311
0.9997633167886348
0.9997649110423279
0.9997664189305515
0.999767836257317
0.9997691591519247
0.9997703841003382
0.9997715079755439
0.9997725280665403
0.9997734421058028
0.9997742482948926
0.999774945328085
0.9997755324137239
0.9997760092932305
0.9997763762575235
0.9997766341608421
0.9997767844317923
0.9997768290816903
0.999776770710084
0.9997766125076125
0.9997763582561625
0.9997760123265432
0.9997755796737131
0.9997750658298321
0.9997744768952029
0.9997738195273975
0.9997731009285914
0.9997723288313485
0.9997715114827324
0.99977065762673
0.999769776484491
0.9997688777319195
0.9997679714734218
0.9997670682099262
0.99976617879749
0.9997653143947336
0.9997644863948534
0.9997637063350269
0.9997629857466153
0.9997623359959189
0.9997617680661823
0.9997612924257485
0.9997609182928424
0.9997606552784685
0.999760511960289
0.9997605029624393
0.9997606397207872
0
0
0.9996888392253422
0.9996887438591728
0.9996885398080017
0.9996882374947731
0.9996878497238506
0.9996873895124713
0.9996868694789457
0.9996863019156849
0.9996856989069762
0.9996850720740117
0.9996844325165171
0.9996837906198152
0.9996831559774588
0.9996825373621985
0.9996819427266682
0.9996813792199071
0.9996808532224836
0.9996803703922998
0.9996799357152326
0.9996795535579157
0.9996792277206702
0.9996789614894155
0.9996787576851757
0.9996786187108543
0.9996785465945935
0.9996785430298135
0.9996786094115356
0.999678746869283
0.9996789562963265
0.9996792383756594
0.9996795936025642
0.999680022304176
0.999680524655965
0.9996811006955474
0.9996817503337678
0.9996824733634685
0.9996832694658947
0.9996841382151381
0.9996850790805922
0.9996860914277872
0.9996871745176011
0.9996883275041913
0.9996895494316521
0.9996908392297249
0.9996921957085787
0.9996936175529592
0.9996951033157451
0.9996966514111854
0.9996982601078668
0.9996999275216644
0.9997016516087375
0.9997034301588065
0.9997052607887759
0.9997071409369217
0.99970906785772
0.9997110386175109
0.9997130500910801
0.9997150989593283
0.9997171817081191
0.999719294628444
0.9997214338179978
0.9997235951842733
0.9997257744492632
0.9997279671558444
0.9997301686759271
0.9997323742204018
0.9997345788509502
0.9997367774937177
0.9997389649548896
0.9997411359381201
0.9997432850638357
0.9997454068903099
0.9997474959365041
0.999749546706518
0.9997515537156121
0.9997535115175992
0.9997554147335302
0.9997572580814263
0.9997590364069451
0.9997607447146978
0.9997623782000742
0.9997639322812544
0.99976540263125
0.9997667852096226
0.999768076293719
0.9997692725090522
0.9997703708586753
0.9997713687511793
0.9997722640271788
0.9997730549839294
0.9997737403979857
0.9997743195455698
0.9997747922206015
0.9997751587501207
0.9997754200071062
0.9997755774204803
0.9997756329823755
0.99977558925252
0.9997754493598837
0.9997752170015128
0.9997748964387538
0.9997744924908479
0.9997740105261438
0.9997734564509178
0.999772836696059
0.9997721582015591
0.9997714283989735
0.9997706551916536
0.9997698469327065
0.9997690124000971
0.9997681607683104
0.9997673015753846
0.9997664446844206
0.9997656002368945
0.9997647785939621
0.9997639902611594
0.999763245804594
0.9997625557433684
0.999761930415838
0.9997613797809265
0.9997609134788727
0.999760540633836
0.9997602707582981
0.9997601135793407
0.9997600808989177
0.9997601824740582
0
0
0.9996895862544379
0.9996894031580883
0.9996891343697083
0.9996887868250337
0.9996883705583016
0.9996878957319397
0.9996873727198564
0.9996868119868053
0.999686223792017
0.9996856181228515
0.9996850045687563
0.999684392190687
0.9996837894528078
0.9996832041712218
0.9996826434908037
0.9996821138870741
0.9996816211847994
0.9996811705864541
0.9996807667075456
0.9996804136165717
0.9996801148767793
0.9996798735883746
0.9996796924296806
0.9996795736968418
0.9996795193411374
0.9996795310038994
0.9996796100484584
0.9996797575893623
0.9996799745184828
0.9996802615283713
0.9996806191326024
0.9996810476835152
0.9996815473871592
0.9996821183158808
0.9996827604183944
0.9996834735277758
0.9996842573672591
0.9996851115542531
0.9996860356024835
0.9996870289226695
0.9996880908216511
0.9996892205003525
0.9996904170505299
0.9996916794506513
0.9996930065608846
0.9996943971175106
0.9996958497267636
0.9996973628583865
0.9996989348389171
0.9997005638449807
0.9997022478966119
0.9997039848508591
0.9997057723957128
0.9997076080445891
0.9997094891314154
0.999711412806533
0.9997133760334711
0.9997153755867828
0.9997174080510023
0.9997194698208876
0.9997215571030167
0.9997236659188596
0.9997257921094014
0.9997279313414047
0.9997300791153727
0.9997322307752722
0.9997343815200591
0.9997365264170227
0.9997386604169798
0.9997407783712832
0.9997428750506507
0.9997449451657362
0.9997469833894166
0.9997489843806635
0.9997509428099486
0.9997528533859935
0.999754710883786
0.9997565101736223
0.9997582462510657
0.9997599142675377
0.9997615095614089
0.9997630276892596
0.9997644644571698
0.9997658159516728
0.9997670785702241
0.9997682490508071
0.9997693245005339
0.9997703024228529
0.9997711807432467
0.9997719578330441
0.9997726325312621
0.9997732041641344
0.9997736725622864
0.9997740380752537
0.9997743015833706
0.9997744645067751
0.9997745288116253
0.9997744970133321
0.9997743721769671
0.999774157914719
0.999773858380601
0.999773478262335
0.9997730227706498
0.9997724976259201
0.9997719090423905
0.9997712637098484
0.9997705687729159
0.9997698318076715
0.9997690607955669
0.9997682640941001
0.9997674504038675
0.9997666287307794
0.9997658083424122
0.9997649987173163
0.9997642094867989
0.9997634503640789
0.9997627310609696
0.9997620611956927
0.9997614502168944
0.9997609072911298
0.9997604413389833
0.9997600610759895
0.9997597752781129
0.9997595928264117
0.9997595238786524
0.9997595756998696
0
0
0.9996904277838636
0.9996901501332423
0.9996898074399113
0.9996894048212489
0.9996889496227082
0.9996884495371271
0.9996879129962796
0.9996873486206893
0.9996867650111204
0.9996861706442788
0.9996855737223681
0.9996849820790662
0.9996844030985734
0.9996838436568354
0.9996833100916164
0.9996828081923022
0.9996823432034769
0.9996819198403053
0.9996815423121429
0.9996812143516148
0.9996809392464708
0.9996807198731773
0.9996805587305442
0.9996804579729073
0.9996804194417455
0.9996804446957122
0.9996805350383406
0.9996806915436504
0.9996809150791209
0.9996812063264039
0.9996815657993825
0.9996819938600056
0.9996824907316023
0.9996830565101265
0.9996836911730976
0.9996843945866917
0.9996851665107891
0.9996860066024291
0.9996869144175015
0.9996878894111161
0.9996889309365065
0.9996900382428822
0.9996912104721164
0.9996924466546602
0.9996937457045834
0.9996951064141216
0.9996965274476464
0.9996980073354069
0.9996995444669923
0.9997011370848315
0.9997027832777006
0.9997044809745301
0.9997062279385054
0.9997080217617208
0.9997098598604007
0.9997117394709266
0.999713657646689
0.9997156112559841
0.9997175969809847
0.9997196113179682
0.999721650578847
0.9997237108941496
0.9997257882174977
0.9997278783316946
0.9997299768564639
0.9997320792579174
0.9997341808597815
0.9997362768564139
0.9997383623276294
0.9997404322553165
0.9997424815418392
0.9997445050301635
0.9997464975256711
0.9997484538195432
0.9997503687136593
0.9997522370468291
0.9997540537222798
0.9997558137361591
0.9997575122069523
0.9997591444055257
0.9997607057856639
0.9997621920147813
0.9997635990046495
0.999764922941796
0.9997661603174051
0.999767307956357
0.9997683630452424
0.999769323158982
0.9997701862859097
0.9997709508509539
0.9997716157368178
0.9997721803028072
0.9997726444012665
0.9997730083912993
0.9997732731498002
0.9997734400795251
0.9997735111142813
0.9997734887210339
0.9997733758990671
0.9997731761760462
0.9997728936011853
0.9997725327353886
0.999772098638623
0.9997715968543791
0.9997710333914753
0.9997704147030282
0.9997697476627576
0.9997690395383471
0.9997682979618505
0.999767530896614
0.9997667466005022
0.9997659535847043
0.9997651605674626
0.9997643764212005
0.9997636101134129
0.9997628706416656
0.9997621669626895
0.9997615079121518
0.9997609021431367
0.9997603580772858
0.9997598839000512
0.999759487613347
0.9997591771423935
0.9997589599912479
0.9997588445507017
0.9997588366438235
0
0
0.9996913396448333
0.9996909630604802
0.9996905404763032
0.9996900755477188
0.9996895731779772
0.9996890392477623
0.9996884803811688
0.9996879035030933
0.9996873157147749
0.9996867241039978
0.9996861356064065
0.9996855569114779
0.9996849943783519
0.9996844539792316
0.999683941262352
0.99968346133168
0.9996830188411433
0.9996826180007429
0.9996822625904604
0.9996819559802179
0.9996817011534824
0.9996815007334671
0.9996813570100765
0.9996812719671944
0.9996812473090724
0.999681284485818
0.9996813847170842
0.9996815490142085
0.9996817782001379
0.9996820729275336
0.9996824336945396
0.9996828608586837
0.9996833546484981
0.9996839151733556
0.9996845424311884
0.9996852363145807
0.9996859966149613
0.9996868230253831
0.999687715141645
0.9996886724622344
0.9996896943868809
0.9996907802141711
0.9996919291380478
0.9996931402436255
0.9996944125021631
0.9996957447656023
0.9996971357605476
0.9996985840820602
0.9997000881871696
0.9997016463884525
0.9997032568476011
0.9997049175693113
0.999706626395433
0.9997083809996786
0.9997101788828671
0.9997120173689621
0.9997138936019019
0.9997158045434591
0.9997177469721262
0.9997197174832497
0.9997217124904157
0.9997237282282715
0.9997257607567961
0.9997278059671673
0.9997298595892374
0.9997319172007213
0.9997339742381084
0.9997360260093527
0.9997380677083438
0.9997400944311576
0.9997421011940778
0.9997440829533298
0.9997460346264959
0.9997479511154994
0.9997498273310947
0.9997516582187007
0.9997534387854845
0.9997551641284713
0.9997568294635698
0.9997584301552312
0.9997599617466095
0.9997614199898959
0.9997628008766779
0.9997641006679625
0.9997653159237074
0.9997664435314728
0.999767480734044
0.999768425155637
0.9997692748265433
0.9997700282058386
0.9997706842020538
0.9997712421914386
0.999771702033778
0.9997720640854203
0.999772329209539
0.9997724987833319
0.9997725747022479
0.9997725593809919
0.9997724557514719
0.9997722672574775
0.9997719978463181
0.9997716519572444
0.9997712345069113
0.9997707508717242
0.9997702068673192
0.9997696087249828
0.9997689630652171
0.999768276868154
0.9997675574409307
0.9997668123815769
0.9997660495392983
0.9997652769705601
0.9997645028910195
0.9997637356226422
0.9997629835356822
0.9997622549859239
0.9997615582514355
0.9997609014682431
0.9997602925729983
0.9997597392658061
0.9997592489843543
0.9997588288655797
0.9997584858723156
0.9997582263573721
0.9997580567540846
0.9997579817453096
0
0
0.9996923000573513
0.9996918224959181
0.9996913162836502
0.9996907837474022
0.999690227981873
0.9996896533755079
0.9996890649362044
0.9996884681412902
0.9996878687333217
0.9996872725325247
0.9996866853146488
0.9996861127079784
0.9996855601116955
0.9996850326384041
0.999684535072279
0.999684071843911
0.9996836470182685
0.9996832642933605
0.9996829270066506
0.9996826381479578
0.9996824003763015
0.9996822160398038
0.9996820871968496
0.9996820156381958
0.9996820029086686
0.9996820503285004
0.9996821590132982
0.999682329892918
0.9996825637284896
0.9996828611279922
0.9996832225597854
0.9996836483645803
0.9996841387653557
0.9996846938757458
0.999685313706481
0.9996859981704168
0.9996867470857882
0.9996875601782259
0.9996884370812106
0.9996893773354911
0.9996903803871755
0.9996914455850032
0.9996925721765404
0.9996937593037832
0.9996950059979411
0.9996963111738584
0.9996976736238746
0.9996990920115625
0.9997005648651627
0.9997020905711315
0.9997036673676508
0.9997052933384855
0.9997069664070664
0.9997086843311545
0.999710444697988
0.999712244920245
0.9997140822327436
0.9997159536901744
0.9997178561658173
0.9997197863515008
0.9997217407587684
0.9997237157214787
0.9997257073998138
0.9997277117858776
0.9997297247108737
0.9997317418539896
0.9997337587529795
0.9997357708165318
0.9997377733383893
0.9997397615132702
0.9997417304545351
0.9997436752135943
0.9997455908009815
0.9997474722090222
0.9997493144360086
0.9997511125117421
0.9997528615243287
0.9997545566480343
0.9997561931720526
0.999757766529938
0.9997592723295425
0.9997607063831481
0.9997620647376216
0.9997633437042457
0.9997645398880517
0.9997656502162661
0.9997666719657156
0.9997676027887866
0.9997684407377999
0.9997691842874022
0.9997698323548729
0.9997703843179601
0.9997708400301993
0.9997711998333578
0.9997714645670203
0.9997716355750004
0.9997717147086653
0.9997717043269054
0.9997716072929024
0.9997714269674772
0.9997711671992352
0.9997708323113166
0.9997704270850215
0.999769956740124
0.9997694269121584
0.9997688436264717
0.9997682132692951
0.999767542555567
0.999766838493682
0.9997661083468279
0.9997653595910316
0.9997645998694354
0.9997638369429028
0.9997630786369074
0.9997623327853252
0.9997616071709017
0.9997609094649252
0.999760247169465
0.999759627562302
0.9997590576490061
0.9997585441330649
0.9997580933248387
0.9997577111741464
0.9997574030408297
0.999757173728479
0.9997570268018022
0
0
0.9996932898442521
0.9996927108572277
0.9996921188343634
0.9996915150544904
0.9996909013064593
0.9996902806751473
0.9996896568305242
0.9996890340034965
0.9996884167186211
0.9996878096605324
0.9996872175479741
0.9996866450315594
0.9996860966161178
0.999685576602291
0.9996850890433555
0.9996846377172933
0.9996842261101455
0.9996838574095656
0.9996835345058759
0.9996832599994586
0.9996830362121026
0.99968286520174
0.9996827487787321
0.9996826885235062
0.9996826858041177
0.9996827417938696
0.9996828574878928
0.9996830337190131
0.9996832711720472
0.9996835703969901
0.9996839318203777
0.9996843557553875
0.9996848424100592
0.9996853918942327
0.9996860042246787
0.9996866793290251
0.9996874170480146
0.999688217136695
0.9996890792641268
0.9996900030121938
0.9996909878731448
0.9996920332464267
0.9996931384344808
0.9996943026380322
0.9996955249505793
0.9996968043525933
0.9996981397051568
0.9996995297435332
0.9997009730704207
0.9997024681493604
0.9997040132980823
0.9997056066822263
0.9997072463092558
0.9997089300229725
0.9997106554984769
0.9997124202379513
0.9997142215671432
0.999716056632887
0.9997179224015674
0.99971981565883
0.9997217330104626
0.999723670884713
0.9997256255359787
0.9997275930501
0.9997295693511979
0.9997315502102384
0.9997335312552683
0.9997355079834578
0.999737475774886
0.9997394299081459
0.9997413655777017
0.9997432779130082
0.9997451619993084
0.9997470129000593
0.9997488256808776
0.9997505954348861
0.9997523173093388
0.9997539865333323
0.999755598446456
0.9997571485281365
0.9997586324275
0.9997600459934567
0.9997613853048171
0.9997626467000917
0.9997638268067945
0.9997649225698522
0.999765931278957
0.999766850594445
0.9997676785715586
0.9997684136826716
0.999769054837381
0.9997696014000444
0.9997700532047317
0.9997704105671951
0.9997706742938846
0.9997708456876611
0.9997709265503052
0.9997709191815186
0.9997708263745889
0.9997706514084669
0.9997703980364895
0.9997700704715345
0.999769673367899
0.9997692117996979
0.9997686912361062
0.9997681175132339
0.9997674968029471
0.9997668355784028
0.999766140576575
0.9997654187574728
0.9997646772603385
0.9997639233565675
0.9997631643996561
0.9997624077719841
0.9997616608293658
0.9997609308438277
0.9997602249454279
0.9997595500651743
0.999758912880008
0.9997583197531171
0.9997577766877301
0.9997572892496549
0.9997568624788024
0.999756500806859
0.9997562078183899
0.9997559861176648
0
0
0.9996942921514917
0.9996936123038099
0.9996929334523165
0.9996922561124627
0.9996915810657233
0.9996909103198511
0.9996902464523838
0.9996895926052063
0.9996889522371363
0.9996883290222108
0.9996877267202532
0.9996871490863967
0.9996865997964659
0.9996860823897513
0.9996856002262304
0.9996851564571683
0.9996847540059075
0.9996843955582038
0.9996840835593771
0.9996838202175377
0.9996836075106865
0.999683447197309
0.999683340828617
0.9996832897623984
0.9996832951770009
0.999683358085692
0.9996834793501935
0.9996836596938267
0.999683899713285
0.999684199889588
0.9996845605973963
0.999684982113308
0.9996854646224326
0.9996860082238967
0.9996866129346647
0.9996872786923408
0.9996880053563957
0.9996887927084848
0.9996896404513519
0.9996905482069686
0.9996915155134514
0.9996925418213811
0.9996936264891131
0.9996947687776695
0.9996959678448418
0.9996972227390782
0.9996985323928023
0.999699895615719
0.9997013110877935
0.9997027773524195
0.9997042928095045
0.9997058557089589
0.9997074641443453
0.9997091160471513
0.9997108091814693
0.9997125411395145
0.9997143093378076
0.9997161110144036
0.9997179432270267
0.9997198028524625
0.9997216865870897
0.9997235909488569
0.9997255122806061
0.9997274467550173
0.9997293903810756
0.999731339012287
0.9997332883565574
0.9997352339879072
0.9997371713599258
0.9997390958210854
0.999741002631813
0.999742886983369
0.9997447440184216
0.9997465688532956
0.999748356601768
0.9997501024003098
0.9997518014346372
0.9997534489673949
0.9997550403668101
0.9997565711360749
0.9997580369432776
0.9997594336515828
0.9997607573494586
0.9997620043806041
0.9997631713733779
0.9997642552693339
0.9997652533506779
0.999766163266226
0.9997669830557043
0.9997677111719655
0.9997683465009977
0.9997688883793127
0.9997693366086486
0.9997696914675918
0.9997699537201292
0.9997701246207722
0.999770205916337
0.9997701998440734
0.9997701091263097
0.9997699369613442
0.9997696870108354
0.9997693633834596
0.9997689706151521
0.9997685136457214
0.9997679977922067
0.9997674287187697
0.9997668124035001
0.9997661551019312
0.999765463307642
0.9997647437097331
0.9997640031475464
0.9997632485624605
0.9997624869472792
0.9997617252931218
0.9997609705344549
0.999760229492733
0.9997595088192706
0.9997588149372084
0.999758153984391
0.9997575317514784
0.9997569536129656
0.9997564244665713
0.9997559486001445
0.9997555296430531
0.9997551702473102
0.9997548722944639
0
0
0.9996952920745306
0.9996945125782345
0.9996937467397078
0.9996929945042716
0.999692255862727