# vtk DataFile Version 2.0
2D-ADE data file 
ASCII
DATASET RECTILINEAR_GRID
DIMENSIONS 128 128 1 
X_COORDINATES 128 int
0 1 2 3 4 5 6 7 8 9 10 11 12 13 14 15 16 17 18 19 20 21 22 23 24 25 26 27 28 29 30 31 32 33 34 35 36 37 38 39 40 41 42 43 44 45 46 47 48 49 50 51 52 53 54 55 56 57 58 59 60 61 62 63 64 65 66 67 68 69 70 71 72 73 74 75 76 77 78 79 80 81 82 83 84 85 86 87 88 89 90 91 92 93 94 95 96 97 98 99 100 101 102 103 104 105 106 107 108 109 110 111 112 113 114 115 116 117 118 119 120 121 122 123 124 125 126 127 
Y_COORDINATES 128 int
0 1 2 3 4 5 6 7 8 9 10 11 12 13 14 15 16 17 18 19 20 21 22 23 24 25 26 27 28 29 30 31 32 33 34 35 36 37 38 39 40 41 42 43 44 45 46 47 48 49 50 51 52 53 54 55 56 57 58 59 60 61 62 63 64 65 66 67 68 69 70 71 72 73 74 75 76 77 78 79 80 81 82 83 84 85 86 87 88 89 90 91 92 93 94 95 96 97 98 99 100 101 102 103 104 105 106 107 108 109 110 111 112 113 114 115 116 117 118 119 120 121 122 123 124 125 126 127 
Z_COORDINATES 1 int
0
POINT_DATA 16384
SCALARS density double
LOOKUP_TABLE default
0
0
0
0
0
0
0
0
0
0
0
0
0
0
0
0
0
0
0
0
0
0
0
0
0
0
0
0
0
0
0
0
0
0
0
0
0
0
0
0
0
0
0
0
0
0
0
0
0
0
0
0
0
0
0
0
0
0
0
0
0
0
0
0
0
0
0
0
0
0
0
0
0
0
0
0
0
0
0
0
0
0
0
0
0
0
0
0
0
0
0
0
0
0
0
0
0
0
0
0
0
0
0
0
0
0
0
0
0
0
0
0
0
0
0
0
0
0
0
0
0
0
0
0
0
0
0
0
0
0.9996883519514898
0.999688424004397
0.999688335674761
0.9996880272403236
0.9996874917874481
0.9996867682019086
0.9996858944932188
0.999684903675272
0.9996838254195796
0.9996826866712788
0.9996815111420744
0.9996803194693349
0.9996791295559101
0.9996779568913213
0.9996768148163001
0.9996757147713372
0.999674666525324
0.9996736783812611
0.999672757359547
0.9996719093617589
0.9996711393168671
0.9996704513115451
0.9996698487060383
0.999669334236977
0.9996689101082846
0.9996685780712261
0.9996683394945001
0.9996681954251899
0.9996681466413038
0.9996681936965718
0.9996683369581032
0.9996685766374758
0.9996689128157772
0.9996693454630962
0.9996698744529317
0.9996704995719593
0.9996712205255819
0.9996720369396735
0.9996729483588978
0.9996739542419847
0.999675053954326
0.9996762467582367
0.9996775318012305
0.9996789081026296
0.9996803745388398
0.9996819298275953
0.9996835725114813
0.9996853009410306
0.9996871132576802
0.9996890073768735
0.9996909809715787
0.9996930314564916
0.9996951559731864
0.9996973513764582
0.9996996142221116
0.9997019407564169
0.9997043269074735
0.9997067682786797
0.9997092601445242
0.9997117974488717
0.9997143748059356
0.9997169865040693
0.9997196265125352
0.9997222884913539
0.9997249658043306
0.9997276515353286
0.9997303385078314
0.9997330193078006
0.9997356863098239
0.9997383317064877
0.9997409475409047
0.9997435257422673
0.9997460581642827
0.9997485366262915
0.9997509529568511
0.9997532990395196
0.9997555668605514
0.9997577485581741
0.999759836473095
0.9997618231998515
0.9997637016386126
0.999765465046991
0.9997671070914473
0.9997686218978267
0.9997700041005979
0.9997712488903296
0.9997723520589968
0.9997733100426794
0.9997741199612822
0.9997747796549021
0.9997752877165382
0.9997756435208572
0.999775847248809
0.9997758999079145
0.9997758033481469
0.9997755602733631
0.9997751742483454
0.9997746497015751
0.9997739919239426
0.9997732070636872
0.9997723021179395
0.9997712849213176
0.9997701641321131
0.9997689492166755
0.9997676504326716
0.9997662788119421
0.9997648461437307
0.9997633649590393
0.9997618485168526
0.9997603107928501
0.9997587664709469
0.9997572309376097
0.99975572027827
0.9997542512746527
0.9997528413966263
0.9997515087790997
0.999750272168957
0.9997491508631062
0.9997481645155829
0.9997473326330695
0.9997466733101145
0.9997462032365326
0.999745936207106
0.9997458743650636
0.9997459539415217
0.999746086039686
0
0
0.9996882804030965
0.9996883523880347
0.9996882525135417
0.9996879556986262
0.9996874791473126
0.9996868396894352
0.9996860635466918
0.9996851779712332
0.9996842091937777
0.9996831808624236
0.9996821143000741
0.9996810285165779
0.9996799403015771
0.999678864361406
0.9996778135125396
0.9996767988705083
0.9996758300288727
0.999674915226296
0.999674061501757
0.9996732748366953
0.9996725602841986
0.9996719220858635
0.9996713637770284
0.9996708882811448
0.9996704979939638
0.9996701948582709
0.9996699804297808
0.9996698559348558
0.9996698223205706
0.9996698802977152
0.9996700303772029
0.999670272900397
0.9996706080637932
0.9996710359385115
0.9996715564849994
0.9996721695633634
0.9996728749397045
0.9996736722888387
0.9996745611937541
0.9996755411421645
0.9996766115204939
0.9996777716056169
0.999679020554685
0.9996803573933424
0.9996817810026395
0.9996832901049407
0.9996848832491105
0.9996865587952706
0.9996883148993919
0.9996901494979956
0.999692060293231
0.9996940447385724
0.9996961000253963
0.999698223070673
0.9997004105060092
0.9997026586682569
0.9997049635919228
0.9997073210035559
0.9997097263183288
0.9997121746389768
0.9997146607572689
0.9997171791581455
0.999719724026671
0.9997222892578872
0.9997248684696799
0.9997274550186981
0.999730042019385
0.9997326223661125
0.9997351887584176
0.9997377337292679
0.999740249676307
0.9997427288959259
0.9997451636200476
0.9997475460554189
0.9997498684252057
0.9997521230126345
0.9997543022064099
0.9997563985475867
0.99975840477757
0.9997603138868647
0.999762119164214
0.9997638142456984
0.9997653931634097
0.9997668503932529
0.9997681809014801
0.9997693801895098
0.9997704443366577
0.9997713700403476
0.9997721546534788
0.9997727962185736
0.999773293498438
0.9997736460030483
0.9997738540124849
0.999773918595731
0.9997738416252717
0.9997736257874345
0.9997732745885324
0.9997727923569018
0.9997721842410213
0.9997714562039496
0.9997706150144172
0.9997696682349348
0.999768624207377
0.9997674920365159
0.9997662815720483
0.99976500338963
0.9997636687714659
0.9997622896868793
0.9997608787732114
0.9997594493171059
0.9997580152359441
0.9997565910584425
0.9997551919022789
0.9997538334446118
0.9997525318809926
0.9997513038630391
0.9997501663934799
0.9997491366182004
0.9997482315150525
0.9997474674536354
0.9997468595543143
0.9997464193653626
0.9997461513437454
0.9997460481070728
0.9997460850657645
0.9997462166807191
0
0
0.9996883691475736
0.9996884527063468
0.9996883526050818
0.999688069303904
0.99968762945594
0.9996870453015687
0.9996863392337872
0.9996855338849733
0.9996846514195429
0.9996837124434556
0.9996827360775324
0.9996817396269382
0.9996807385754372
0.9996797466621878
0.999678776005215
0.9996778372250881
0.9996769395776105
0.9996760910866148
0.9996752986718362
0.9996745682689747
0.9996739049412952
0.9996733129824888
0.9996727960106248
0.9996723570534283
0.9996719986250991
0.9996717227951253
0.9996715312494089
0.9996714253442004
0.9996714061531835
0.999671474508189
0.9996716310338926
0.99967187617694
0.9996722102298425
0.9996726333500672
0.9996731455746395
0.9996737468306677
0.9996744369420902
0.9996752156330247
0.9996760825280157
0.999677037149538
0.9996780789130354
0.9996792071198323
0.9996804209481976
0.9996817194428684
0.9996831015033066
0.9996845658709826
0.9996861111159506
0.9996877356229851
0.9996894375775461
0.9996912149518229
0.9996930654911098
0.9996949867007571
0.9996969758339376
0.9996990298804511
0.999701145556804
0.9997033192977609
0.9997055472495925
0.9997078252651971
0.9997101489012988
0.9997125134178715
0.9997149137799707
0.9997173446620906
0.9997198004551906
0.9997222752764745
0.999724762982032
0.9997272571823718
0.9997297512609133
0.9997322383954174
0.9997347115823616
0.9997371636641886
0.9997395873593714
0.9997419752951608
0.9997443200428977
0.9997466141556873
0.9997488502082568
0.9997510208387247
0.999753118792052
0.9997551369648351
0.999757068451156
0.9997589065891064
0.9997606450076563
0.999762277673443
0.9997637989371237
0.9997652035788562
0.9997664868525344
0.9997676445283499
0.9997686729333224
0.9997695689893898
0.999770330248741
0.9997709549260451
0.9997714419273076
0.9997717908750849
0.9997720021298855
0.9997720768075731
0.9997720167927145
0.999771824747795
0.9997715041183644
0.9997710591341671
0.9997704948064341
0.9997698169215178
0.9997690320311661
0.9997681474397221
0.9997671711886409
0.9997661120386757
0.9997649794501646
0.9997637835617587
0.9997625351679487
0.9997612456955692
0.9997599271793296
0.9997585922360254
0.9997572540366951
0.999755926275291
0.9997546231315815
0.9997533592228904
0.999752149537084
0.9997510093368372
0.9997499540334865
0.999748998972574
0.9997481590738092
0.9997474482167037
0.9997468788837148
0.9997464607099694
0.999746197981506
0.9997460841384131
0.9997461215999109
0.9997462958349477
0
0
0.9996886785605423
0.9996887507010507
0.9996886361422666
0.9996883518097772
0.9996879256405985
0.999687373229067
0.9996867139783783
0.9996859661754313
0.9996851487364208
0.999684279773337
0.9996833762118051
0.9996824535467054
0.9996815258619479
0.9996806058195238
0.9996797047037409
0.9996788324993781
0.9996779979891719
0.9996772088543275
0.9996764717753838
0.9996757925309581
0.9996751760922004
0.9996746267115953
0.9996741480053591
0.999673743029269
0.9996734143477354
0.9996731640962814
0.9996729940374867
0.9996729056107193
0.9996728999758299
0.9996729780511812
0.9996731405462409
0.9996733879891244
0.9996737207493342
0.9996741390560842
0.9996746430124523
0.9996752326057512
0.9996759077143529
0.9996766681113386
0.999677513465219
0.999678443338069
0.9996794571813213
0.9996805543295475
0.9996817339924667
0.9996829952454906
0.9996843370190466
0.9996857580869617
0.9996872570541542
0.9996888323438988
0.9996904821849002
0.9996922045984311
0.9996939973857676
0.9996958581161529
0.9996977841155252
0.9996997724562172
0.999701819947856
0.9997039231296562
0.9997060782643166
0.9997082813336914
0.9997105280364393
0.9997128137877815
0.9997151337215577
0.9997174826946791
0.9997198552941354
0.999722245846619
0.9997246484308863
0.9997270568928726
0.999729464863642
0.9997318657801341
0.999734252908734
0.9997366193715772
0.9997389581755552
0.9997412622438756
0.9997435244500765
0.999745737654291
0.999747894741596
0.9997499886621793
0.9997520124731069
0.9997539593813556
0.9997558227878518
0.9997575963321225
0.9997592739372645
0.9997608498548058
0.9997623187091239
0.9997636755409942
0.9997649158499101
0.9997660356347624
0.9997670314325285
0.9997679003545747
0.9997686401202721
0.9997692490875751
0.9997697262803182
0.9997700714119494
0.9997702849055444
0.9997703679099106
0.9997703223117168
0.9997701507435651
0.9997698565880592
0.999769443977885
0.9997689177920763
0.9997682836485909
0.9997675478934613
0.9997667175867418
0.999765800485578
0.9997648050246556
0.9997637402943707
0.9997626160169224
0.9997614425205418
0.9997602307118435
0.9997589920461736
0.9997577384954154
0.999756482512295
0.9997552369891698
0.9997540152088211
0.9997528307838154
0.9997516975792076
0.999750629600935
0.999749640839107
0.9997487450592417
0.9997479555862231
0.9997472848025936
0.9997467435170506
0.9997463398980742
0.9997460809203769
0.9997459685862711
0.9997460189505737
0.999746236098686
0
0
0.9996892171598921
0.9996892302030702
0.9996890772453308
0.9996887761977605
0.9996883479633583
0.9996878091428645
0.999687176862665
0.9996864672377953
0.9996856966430409
0.9996848807267125
0.9996840343178226
0.9996831712226181
0.9996823041292049
0.9996814445522647
0.9996806028549726
0.9996797882943402
0.9996790090826303
0.9996782724591821
0.9996775847686491
0.9996769515406198
0.9996763775677544
0.9996758669810131
0.9996754233207933
0.9996750496034097
0.9996747483823517
0.9996745218042772
0.9996743716595635
0.9996742994275964
0.9996743063168019
0.9996743932997084
0.999674561143141
0.9996748104338844
0.9996751415999672
0.999675554927915
0.9996760505761599
0.9996766285849544
0.9996772888829822
0.9996780312910191
0.9996788555228345
0.9996797611836773
0.9996807477665456
0.9996818146465611
0.9996829610736546
0.9996841861638663
0.9996854888894725
0.999686868068217
0.9996883223518682
0.9996898502143631
0.9996914499397513
0.9996931196101934
0.9996948570942235
0.9996966600355066
0.9996985258423081
0.9997004516778828
0.999702434451995
0.9997044708137616
0.999706557146017
0.9997086895613694
0.999710863900139
0.9997130757303129
0.9997153203496958
0.9997175927903547
0.9997198878255095
0.9997221999789371
0.999724523536999
0.9997268525633192
0.9997291809161821
0.9997315022686283
0.9997338101312627
0.9997360978777012
0.9997383587726204
0.999740586002267
0.9997427727073379
0.9997449120180242
0.9997469970910762
0.9997490211486101
0.9997509775184578
0.9997528596757403
0.9997546612853955
0.9997563762452923
0.9997579987296394
0.9997595232322681
0.999760944609475
0.9997622581219915
0.9997634594757464
0.9997645448610003
0.9997655109895255
0.9997663551294288
0.9997670751373364
0.9997676694875772
0.9997681372981385
0.9997684783531021
0.9997686931214134
0.9997687827717752
0.9997687491836086
0.9997685949539791
0.9997683234005269
0.9997679385604014
0.9997674451853483
0.999766848733035
0.9997661553548561
0.999765371880374
0.9997645057986827
0.9997635652368779
0.999762558935895
0.9997614962238341
0.9997603869868958
0.9997592416378092
0.9997580710815055
0.9997568866773823
0.9997557001972955
0.999754523777654
0.9997533698629433
0.9997522511362317
0.9997511804344089
0.9997501706427602
0.9997492345592737
0.9997483846892175
0.9997476330349641
0.9997469908242143
0.9997464683414841
0.9997460741132786
0.9997458170595555
0.9997457046980113
0.9997457532232324
0.9997459744805791
0
0
0.9996899480606402
0.9996898758581789
0.9996896648705603
0.9996893279536986
0.9996888808739185
0.9996883388942618
0.9996877168122014
0.999687028873494
0.9996862891185994
0.9996855110845427
0.999684707751749
0.9996838913057678
0.9996830730372197
0.9996822632968565
0.9996814714878788
0.9996807060783288
0.999679974637647
0.9996792838876473
0.9996786397609487
0.9996780474630979
0.9996775115359485
0.9996770359204498
0.9996766240171636
0.9996762787437287
0.9996760025884823
0.9996757976600265
0.9996756657323494
0.999675608285569
0.9996756265421523
0.9996757214988297
0.9996758939541825
0.999676144532203
0.9996764737018847
0.9996768817931654
0.9996773690093368
0.9996779354362519
0.9996785810484653
0.9996793057126456
0.9996801091884051
0.999680991126881
0.9996819510672262
0.9996829884313262
0.9996841025169119
0.9996852924893709
0.9996865573724328
0.9996878960380114
0.9996893071953895
0.9996907893800108
0.9996923409420697
0.9996939600351481
0.9996956446050838
0.9996973923793174
0.9996992008568961
0.999701067299357
0.999702988722677
0.9997049618904881
0.9997069833087403
0.9997090492219851
0.9997111556114548
0.9997132981950863
0.9997154724296429
0.9997176735150548
0.999719896401109
0.999722135796567
0.9997243861808162
0.9997266418180881
0.9997288967743092
0.9997311449365647
0.9997333800352005
0.9997355956684859
0.9997377853298076
0.9997399424372584
0.9997420603655365
0.9997441324799556
0.9997461521724205
0.9997481128991088
0.9997500082196596
0.9997518318375486
0.9997535776414013
0.9997552397468732
0.999756812538815
0.9997582907133005
0.9997596693192253
0.9997609437990256
0.9997621100282086
0.999763164353262
0.9997641036276276
0.9997649252453351
0.999765627172018
0.9997662079729421
0.9997666668378292
0.9997670036021726
0.9997672187648937
0.9997673135021274
0.9997672896770702
0.9997671498457701
0.9997668972588942
0.9997665358594476
0.999766070276574
0.9997655058154973
0.9997648484438169
0.9997641047742712
0.9997632820442272
0.9997623880920211
0.9997614313303795
0.9997604207169651
0.9997593657221481
0.9997582762938287
0.9997571628191031
0.9997560360821316
0.9997549072173084
0.9997537876564077
0.9997526890684437
0.9997516232891128
0.9997506022354691
0.9997496378016644
0.9997487417463888
0.9997479255533759
0.9997472002694135
0.9997465762828724
0.9997460634510178
0.9997456708944463
0.9997454083952108
0.9997452859991925
0.9997453174048349
0.999745513955286
0
0
0.9996908353806472
0.9996906630495587
0.9996903778869644
0.9996899887308721
0.9996895082315379
0.9996889486844514
0.999688322480082
0.9996876419336691
0.9996869190952444
0.9996861656736844
0.9996853929202508
0.9996846114782406
0.9996838313044414
0.9996830616052459
0.999682310806039
0.9996815865501605
0.9996808957187909
0.99968024446332
0.999679638246893
0.9996790818921354
0.9996785796318012
0.9996781351603183
0.9996777516845217
0.9996774319727199
0.9996771784010848
0.9996769929970212
0.9996768774789712
0.9996768332926457
0.9996768616433928
0.9996769635248793
0.9996771397439498
0.9996773909419344
0.9996777176123707
0.9996781201154512
0.9996785986892309
0.9996791534579198
0.9996797844373343
0.9996804915378423
0.9996812745648961
0.9996821332174833
0.9996830670846097
0.999684075640134
0.9996851582360796
0.9996863140947325
0.9996875422996614
0.9996888417859486
0.999690211329784
0.9996916495376917
0.9996931548355513
0.9996947254576632
0.9996963594360286
0.9996980545900785
0.9996998085170273
0.9997016185830615
0.9997034819155458
0.9997053953964413
0.9997073556571072
0.9997093590746616
0.9997114017700719
0.9997134796081171
0.9997155881993784
0.9997177229043773
0.9997198788399889
0.9997220508882186
0.9997242337074356
0.9997264217461117
0.9997286092591291
0.9997307903266389
0.9997329588755032
0.9997351087032469
0.9997372335044923
0.9997393268997479
0.9997413824664716
0.9997433937722129
0.9997453544096933
0.9997472580335742
0.9997490983987147
0.999750869399602
0.9997525651107181
0.9997541798274647
0.9997557081073741
0.9997571448111894
0.9997584851435121
0.9997597246925803
0.9997608594688687
0.9997618859420607
0.9997628010761036
0.9997636023619174
0.9997642878474875
0.9997648561649662
0.9997653065545643
0.9997656388849059
0.9997658536697198
0.9997659520806125
0.9997659359558719
0.9997658078051549
0.9997655708100884
0.9997652288207372
0.9997647863480564
0.9997642485523628
0.99976362122802
0.9997629107844245
0.9997621242235291
0.9997612691139977
0.9997603535622045
0.9997593861801005
0.999758376050048
0.9997573326864514
0.9997562659940227
0.999755186222225
0.9997541039153266
0.9997530298568479
0.9997519750072692
0.9997509504340771
0.9997499672338563
0.9997490364411485
0.9997481689270449
0.9997473752936133
0.9997466657993479
0.9997460502496797
0.9997455381197125
0.9997451386381084
0.9997448613693761
0.999744716260253
0.9997447156356489
0.9997448684295106
0
0
0.9996918481810674
0.9996915660742156
0.9996911948362489
0.9996907411746586
0.999690214712543
0.9996896249803884
0.9996889822287214
0.9996882967706558
0.999687578818161
0.9996868383789895
0.9996860851167849
0.9996853282501166
0.9996845764649553
0.9996838378476841
0.9996831198511877
0.9996824292830947
0.9996817723104819
0.9996811544786064
0.9996805807399619
0.9996800554900601
0.9996795826069956
0.9996791654931672
0.999678807117335
0.9996785100560603
0.9996782765333816
0.9996781084583571
0.9996780074597887
0.9996779749180797
0.9996780119938108
0.9996781196531884
0.9996782986901283
0.999678549745226
0.9996788733214975
0.9996792697971958
0.9996797394356601
0.9996802823925295
0.9996808987203266
0.9996815883707497
0.9996823511947124
0.9996831869404685
0.9996840952498892
0.9996850756532076
0.999686127562329
0.9996872502630076
0.9996884429059998
0.9996897044974775
0.9996910338888314
0.9996924297661335
0.9996938906393885
0.9996954148318418
0.999697000469472
0.9996986454709289
0.9997003475380457
0.9997021041471715
0.9997039125414604
0.9997057697243393
0.9997076724542965
0.9997096172411888
0.9997116003442063
0.9997136177716669
0.9997156652827697
0.999717738391447
0.9997198323724307
0.9997219422696298
0.9997240629069164
0.9997261889013683
0.9997283146790319
0.9997304344932054
0.9997325424452647
0.9997346325079722
0.9997366985512404
0.9997387343702381
0.999740733715745
0.9997426903265858
0.999744597963992
0.9997464504476498
0.9997482416932427
0.9997499657511723
0.9997516168462173
0.9997531894177669
0.9997546781603454
0.9997560780640168
0.9997573844543647
0.9997585930316117
0.9997596999085571
0.9997607016468972
0.9997615952916147
0.9997623784030129
0.9997630490861215
0.9997636060170828
0.9997640484662947
0.9997643763179833
0.9997645900860539
0.9997646909259678
0.9997646806425791
0.9997645616937691
0.999764337189906
0.9997640108890543
0.9997635871880581
0.999763071109497
0.9997624682847174
0.9997617849329921
0.9997610278370549
0.9997602043150722
0.9997593221892843
0.9997583897513341
0.999757415724424
0.9997564092221841
0.9997553797041965
0.9997543369278048
0.9997532908959617
0.9997522518006126
0.9997512299609617
0.9997502357554986
0.9997492795490062
0.9997483716158585
0.9997475220614014
0.9997467407393688
0.9997460372064566
0.9997454206978923
0.9997449002009626
0.9997444845778214
0.9997441828583176
0.9997440038649933
0.9997439583117032
0.9997440536501063
0
0
0.9996929585966768
0.9996925600174819
0.9996920945056036
0.9996915670660632
0.9996909844630966
0.9996903541459682
0.9996896843373613
0.9996889834459362
0.9996882599901279
0.9996875224001143
0.9996867788831493
0.999686037325715
0.9996853052063543
0.9996845895352731
0.9996838968153051
0.9996832330209441
0.9996826035942205
0.9996820134542094
0.9996814670159283
0.9996809682162666
0.9996805205444806
0.9996801270756269
0.9996797905050357
0.9996795131829446
0.9996792971481004
0.9996791441599405
0.9996790557285652
0.99967903314244
0.9996790774933206
0.9996791896985353
0.9996793705203119
0.9996796205823821
0.9996799403836871
0.9996803303094692
0.9996807906396583
0.9996813215548767
0.9996819231400127
0.9996825953857055
0.9996833381877338
0.9996841513446435
0.99968503455364
0.99968598740507
0.9996870093755424
0.999688099820005
0.9996892579628385
0.9996904828882766
0.9996917735302271
0.9996931286617854
0.9996945468845408
0.9996960266179419
0.9996975660888309
0.9996991633214128
0.9997008161277691
0.9997025220991625
0.9997042785982635
0.9997060827525143
0.9997079314487736
0.9997098213294329
0.9997117487901446
0.9997137099793377
0.9997157007996421
0.9997177169113737
0.9997197537381882
0.9997218064750125
0.9997238700983457
0.9997259393789941
0.999728008897291
0.9997300730608288
0.9997321261247099
0.999734162214274
0.9997361753502783
0.9997381594764168
0.9997401084890972
0.9997420162693054
0.9997438767164107
0.9997456837836796
0.9997474315152927
0.9997491140845719
0.9997507258331579
0.9997522613107898
0.9997537153153868
0.9997550829330358
0.9997563595775576
0.9997575410292266
0.9997586234723079
0.9997596035309708
0.9997604783032632
0.9997612453927033
0.9997619029372182
0.9997624496350178
0.9997628847671749
0.9997632082165778
0.9997634204830814
0.9997635226946052
0.999763516614094
0.9997634046421678
0.9997631898154844
0.9997628758007178
0.9997624668842785
0.9997619679577576
0.9997613844992951
0.9997607225509204
0.999759988692111
0.9997591900096401
0.9997583340639622
0.9997574288521841
0.9997564827678023
0.9997555045571773
0.9997545032728291
0.9997534882233822
0.9997524689200681
0.9997514550195707
0.9997504562634946
0.9997494824143573
0.9997485431884345
0.999747648187235
0.9997468068343788
0.9997460283178664
0.9997453215541082
0.9997446951830847
0.9997441576045624
0.9997437169988048
0.999743381617545
0.9997431592158236
0.9997430584609562
0.9997430856308487
0
0
0.9996941410694575
0.9996936221913978
0.9996930569143159
0.9996924486620355
0.9996918020109702
0.9996911226776178
0.9996904170205911
0.999689691783376
0.9996889539271004
0.9996882104221729
0.9996874681284771
0.9996867336891107
0.9996860134472507
0.9996853133866701
0.9996846390892306
0.9996839957102818
0.9996833879689218
0.999682820150131
0.9996822961159668
0.9996818193240301
0.9996813928506469
0.999681019417334
0.9996807014187836
0.999680440951588
0.9996802398424531
0.9996800996755285
0.9996800218180188
0.9996800074440123
0.9996800575559504
0.9996801730038749
0.9996803545020649
0.9996806026433019
0.9996809179105215
0.9996813006861403
0.9996817512589078
0.9996822698286099
0.9996828565085263
0.9996835113259878
0.9996842342209754
0.9996850250431133
0.9996858835470226
0.9996868093863887
0.9996878021067287
0.9996888611372059
0.9996899857815008
0.9996911752080663
0.9996924284398
0.9996937443434449
0.9996951216187792
0.9996965587878759
0.9996980541845176
0.9996996059440397
0.9997012119936848
0.9997028700437407
0.9997045775795493
0.9997063318546442
0.9997081298851072
0.9997099684453876
0.9997118440656747
0.9997137530310408
0.9997156913824454
0.9997176549197809
0.9997196392070495
0.9997216395798062
0.9997236511549412
0.9997256688428919
0.9997276873623244
0.9997297012573335
0.9997317049171539
0.9997336925983689
0.9997356584495748
0.9997375965384151
0.999739500880885
0.9997413654727614
0.9997431843229995
0.9997449514888715
0.9997466611126461
0.9997483074595099
0.999749884956473
0.9997513882319122
0.9997528121554379
0.9997541518776947
0.9997554028697563
0.9997565609616815
0.9997576223798919
0.9997585837829162
0.999759442295174
0.9997601955383534
0.9997608416600857
0.9997613793595063
0.9997618079094559
0.9997621271749693
0.9997623376278774
0.9997624403572466
0.99976243707557
0.9997623301205197
0.999762122452274
0.9997618176463224
0.9997614198818585
0.9997609339257458
0.9997603651122553
0.9997597193186251
0.9997590029367002
0.9997582228407411
0.9997573863516782
0.9997565011978973
0.9997555754728229
0.9997546175893252
0.9997536362311698
0.9997526403015181
0.9997516388686978
0.9997506411092046
0.9997496562483338
0.9997486934991447
0.999747762001074
0.9997468707589754
0.9997460285872345
0.9997452440633932
0.9997445254955629
0.9997438809062061
0.9997433180560311
0.9997428443821263
0.9997424671785708
0.9997421932288499
0.9997420293689617
0.9997419806597008
0
0
0.9996953727528372
0.9996947317817519
0.9996940631552116
0.9996933690103776
0.9996926523088585
0.9996919172221835
0.9996911685255976
0.9996904115046186
0.9996896516992281
0.9996888947508131
0.9996881462772148
0.9996874117657093
0.9996866964940746
0.9996860054711547
0.9996853433941525
0.9996847146221034
0.9996841231619855
0.999683572665941
0.9996830664371139
0.9996826074423673
0.999682198329594
0.9996818414485243
0.9996815388733098
0.999681292426192
0.9996811037010032
0.9996809740861945
0.9996809047865055
0.9996808968432418
0.9996809511525265
0.9996810684816818
0.9996812494832853
0.999681494707163
0.9996818046100099
0.9996821795629446
0.9996826198567893
0.9996831257054171
0.9996836972470124
0.9996843345436088
0.9996850375787946
0.9996858062539496
0.9996866403829399
0.9996875396856311
0.9996885037801685
0.9996895321743844
0.9996906242562962
0.9996917792840494
0.9996929963752895
0.9996942744962998
0.9996956124509183
0.9996970088695469
0.9996984621982944
0.9996999706885477
0.9997015323870282
0.9997031451266191
0.9997048065180335
0.999706513942584
0.999708264546149
0.9997100552345705
0.9997118826705753
0.999713743272448
0.9997156332145358
0.9997175484297841
0.999719484614379
0.9997214372346556
0.9997234015363332
0.999725372556188
0.9997273451361987
0.9997293139402286
0.9997312734732302
0.9997332181029875
0.99973514208433
0.9997370395857643
0.9997389047184114
0.9997407315671186
0.9997425142235774
0.9997442468212419
0.9997459235718313
0.9997475388031226
0.9997490869977776
0.9997505628328425
0.9997519612196138
0.9997532773434655
0.999754506703292
0.9997556451501255
0.9997566889245753
0.9997576346926262
0.9997584795794495
0.9997592212007742
0.9997598576915055
0.99976038773116
0.9997608105658683
0.9997611260265649
0.9997613345431902
0.9997614371546062
0.9997614355141331
0.9997613318905059
0.9997611291642569
0.9997608308194179
0.9997604409306547
0.9997599641458127
0.9997594056640885
0.9997587712098722
0.9997580670025553
0.9997572997223985
0.9997564764727946
0.9997556047390433
0.9997546923439814
0.9997537474005954
0.9997527782619455
0.9997517934685247
0.9997508016934606
0.9997498116858429
0.9997488322127216
0.9997478720003472
0.9997469396762306
0.9997460437134389
0.9997451923791727
0.9997443936906121
0.9997436553813667
0.9997429848675214
0.9997423892488032
0.9997418752461998
0.9997414492195246
0.9997411169822266
0.9997408839440413
0.9997407540559096
0
0
0.9996966332889228
0.9996958697719233
0.9996950956672239
0.999694312146222
0.9996935208985547
0.9996927247855733
0.9996919272627713
0.9996911323181619
0.9996903442238334
0.9996895674200537
0.9996888063829628
0.9996880655289223
0.9996873491388708
0.9996866613005403
0.9996860058667593
0.9996853864279923
0.9996848062963251
0.9996842684997101
0.9996837757839507
0.9996833306211145
0.9996829352223625
0.9996825915542625
0.9996823013569287
0.999682066163435
0.9996818873192729
0.9996817660016165
0.9996817032374842
0.9996816999208047
0.9996817568277137
0.9996818746302645
0.9996820539080484
0.9996822951580099
0.9996825988020884
0.9996829651930282
0.9996833946180743
0.9996838873009383
0.9996844434018074
0.999685063015802
0.9996857461696991
0.9996864928173258
0.9996873028334865
0.9996881760068131
0.9996891120314396
0.999690110497873
0.9996911708829969
0.9996922925395626
0.9996934746851315
0.999694716390808
0.9996960165697525
0.9996973739658016
0.9996987871422012
0.9997002544707766
0.9997017741215571
0.9997033440531692
0.999704962004033
0.9997066254846615
0.9997083317711101
0.9997100778998574
0.9997118606641787
0.999713676612261
0.99971552204713
0.9997173930286113
0.9997192853773795
0.9997211946812931
0.9997231163040474
0.9997250453962953
0.9997269769092513
0.9997289056108687
0.9997308261045672
0.9997327328505463
0.9997346201896121
0.9997364823694784
0.9997383135734262
0.9997401079512007
0.9997418596519757
0.999743562859183
0.9997452118269826
0.9997468009180952
0.9997483246427143
0.9997497776981524
0.9997511550088938
0.9997524517666482
0.9997536634700454
0.9997547859635246
0.9997558154750426
0.9997567486521372
0.9997575825959739
0.999758314892913
0.9997589436432665
0.9997594674868017
0.9997598856247176
0.99976019783771
0.9997604044999258
0.9997605065884977
0.999760505688559
0.9997604039935196
0.9997602043006101
0.9997599100015775
0.9997595250686498
0.9997590540357487
0.9997585019751752
0.9997578744698301
0.9997571775812848
0.9997564178138286
0.9997556020748704
0.9997547376318666
0.9997538320661824
0.9997528932240983
0.9997519291654047
0.999750948109827
0.9997499583817938
0.9997489683539179
0.9997479863899793
0.9997470207879762
0.9997460797243638
0.9997451712007591
0.9997443029944526
0.9997434826128858
0.9997427172561729
0.9997420137754477
0.9997413786404404
0.999740817891791
0.9997403370789472
0.9997399411258332
0.9997396343137712
0.9997394197173144
0
0
0.9996979044322422
0.9996970188115697
0.9996961382052596
0.9996952630415123
0.9996943939828006
0.9996935328180647