# vtk DataFile Version 2.0
2D-ADE data file 
ASCII
DATASET RECTILINEAR_GRID
DIMENSIONS 128 128 1 
X_COORDINATES 128 int
0 1 2 3 4 5 6 7 8 9 10 11 12 13 14 15 16 17 18 19 20 21 22 23 24 25 26 27 28 29 30 31 32 33 34 35 36 37 38 39 40 41 42 43 44 45 46 47 48 49 50 51 52 53 54 55 56 57 58 59 60 61 62 63 64 65 66 67 68 69 70 71 72 73 74 75 76 77 78 79 80 81 82 83 84 85 86 87 88 89 90 91 92 93 94 95 96 97 98 99 100 101 102 103 104 105 106 107 108 109 110 111 112 113 114 115 116 117 118 119 120 121 122 123 124 125 126 127 
Y_COORDINATES 128 int
0 1 2 3 4 5 6 7 8 9 10 11 12 13 14 15 16 17 18 19 20 21 22 23 24 25 26 27 28 29 30 31 32 33 34 35 36 37 38 39 40 41 42 43 44 45 46 47 48 49 50 51 52 53 54 55 56 57 58 59 60 61 62 63 64 65 66 67 68 69 70 71 72 73 74 75 76 77 78 79 80 81 82 83 84 85 86 87 88 89 90 91 92 93 94 95 96 97 98 99 100 101 102 103 104 105 106 107 108 109 110 111 112 113 114 115 116 117 118 119 120 121 122 123 124 125 126 127 
Z_COORDINATES 1 int
0
POINT_DATA 16384
SCALARS density double
LOOKUP_TABLE default
0
0
0
0
0
0
0
0
0
0
0
0
0
0
0
0
0
0
0
0
0
0
0
0
0
0
0
0
0
0
0
0
0
0
0
0
0
0
0
0
0
0
0
0
0
0
0
0
0
0
0
0
0
0
0
0
0
0
0
0
0
0
0
0
0
0
0
0
0
0
0
0
0
0
0
0
0
0
0
0
0
0
0
0
0
0
0
0
0
0
0
0
0
0
0
0
0
0
0
0
0
0
0
0
0
0
0
0
0
0
0
0
0
0
0
0
0
0
0
0
0
0
0
0
0
0
0
0
0
0.9997120111162926
0.9997094727311321
0.9997077461227843
0.9997072231310338
0.9997069349897774
0.9997066977319079
0.9997065691920454
0.9997065641827915
0.9997066718474192
0.9997068907725278
0.9997072244492596
0.9997076744473691
0.9997082400978425
0.9997089194192389
0.9997097093239022
0.9997106056852866
0.9997116035403335
0.9997126973333563
0.999713881140842
0.9997151488790132
0.9997164944966067
0.9997179121479526
0.9997193963426143
0.9997209420705007
0.999722544902493
0.9997242010671297
0.9997259075043439
0.9997276618975521
0.9997294626855957
0.9997313090561507
0.9997332009223202
0.9997351388841961
0.9997371241772492
0.999739158609453
0.9997412444890813
0.9997433845451346
0.999745581842326
0.9997478396925185
0.9997501615644202
0.9997525509932397
0.9997550114918669
0.9997575464649839
0.9997601591273446
0.9997628524272576
0.9997656289761319
0.9997684909847427
0.9997714402067057
0.9997744778894551
0.9997776047328931
0.9997808208557311
0.9997841257694337
0.9997875183595988
0.9997909968745426
0.9997945589208045
0.9997982014652977
0.9998019208438024
0.9998057127755207
0.9998095723834333
0.9998134942202259
0.9998174722995657
0.9998215001325463
0.9998255707691155
0.9998296768443092
0.9998338106290982
0.9998379640856193
0.9998421289265254
0.99984629667811
0.9998504587467942
0.9998546064884652
0.9998587312800563
0.9998628245926475
0.999866878065259
0.999870883578401
0.9998748333263504
0.9998787198870405
0.9998825362883873
0.9998862760698345
0.9998899333378961
0.9998935028144812
0.999896979876861
0.999900360588205
0.9999036417177525
0.999906820749846
0.9999098958812319
0.9999128660062703
0.9999157306899316
0.9999184901287274
0.9999211451000044
0.9999236969003107
0.9999261472738264
0.9999284983321397
0.9999307524668978
0.9999329122571022
0.9999349803730342
0.9999369594789689
0.9999388521369654
0.9999406607141419
0.9999423872958781
0.9999440336074317
0.9999456009464267
0.9999470901286384
0.9999485014494206
0.9999498346630158
0.9999510889818539
0.9999522630977561
0.9999533552266909
0.9999543631783073
0.9999552844509584
0.9999561163523212
0.9999568561445938
0.999957501210737
0.9999580492371192
0.9999584984148531
0.9999588476618417
0.9999590968100155
0.9999592466721787
0.9999592992459263
0.9999592586094951
0.9999591307129556
0.9999589171885549
0.9999586112847886
0.9999582307966404
0.999957834989578
0.999957260314491
0.9999556097917722
0.9999532406646795
0
0
0.9997092980437219
0.999708511522302
0.9997077341950212
0.9997072034180903
0.9997068624088201
0.9997066983657175
0.9997066553296152
0.9997067177443899
0.999706889254019
0.9997071727927904
0.9997075684889973
0.9997080760644657
0.9997086946931435
0.9997094224147198
0.9997102561291002
0.9997111918257688
0.9997122247848456
0.9997133497602472
0.9997145611709286
0.9997158532904675
0.9997172204232643
0.9997186570631365
0.999720158032457
0.9997217186002936
0.9997233345787456
0.9997250023974724
0.9997267191569651
0.9997284826614693
0.9997302914327196
0.9997321447058642
0.9997340424090949
0.9997359851286319
0.9997379740607961
0.9997400109529878
0.9997420980354181
0.99974423794548
0.9997464336466187
0.9997486883435273
0.9997510053954204
0.999753388229038
0.9997558402528965
0.9997583647741722
0.9997609649194091
0.999763643560096
0.9997664032439451
0.999769246132549
0.9997721739458988
0.9997751879140908
0.999778288736402
0.9997814765477874
0.9997847508927362
0.999788110706353
0.9997915543024616
0.9997950793684851
0.9997986829668452
0.9998023615426075
0.9998061109371177
0.9998099264073849
0.9998138026509872
0.999817733836302
0.9998217136378773
0.9998257352767637
0.9998297915656317
0.999833874958476
0.9998379776046836
0.9998420914071795
0.9998462080843211
0.999850319235117
0.9998544164072565
0.99985849116735
0.9998625351726566
0.999866540243484
0.9998704984353395
0.9998744021098089
0.9998782440030826
0.9998820172909668
0.9998857156491945
0.9998893333078375
0.9998928650986477
0.9998963064942082
0.999899653637858
0.9999029033634967
0.999906053204506
0.9999091013912405
0.9999120468367387
0.9999148891105561
0.9999176284008695
0.9999202654652981
0.9999228015711296
0.9999252384259484
0.9999275780999151
0.9999298229411983
0.9999319754863
0.999934038367209
0.9999360142174915
0.999937905579558
0.9999397148154384
0.9999414440234495
0.9999430949631508
0.9999446689909564
0.9999461670087024
0.9999475894273682
0.9999489361479967
0.9999502065616728
0.9999513995701513
0.9999525136284074
0.9999535468099411
0.9999544968950753
0.9999553614816278
0.9999561381166105
0.9999568244472942
0.9999574183878107
0.9999579182906166
0.9999583231140722
0.9999586326113243
0.9999588475527148
0.9999589697431697
0.9999590015147575
0.9999589456586487
0.9999588077529601
0.9999585944395277
0.9999582949722013
0.9999578614824156
0.9999572854034482
0.9999565188286307
0.9999557796318788
0
0
0.9997074212263007
0.9997076062629036
0.9997074377828756
0.9997070251442532
0.999706786893805
0.9997067080261711
0.9997067280416564
0.999706849798855
0.9997070813424044
0.9997074224141929
0.9997078721161924
0.9997084304059521
0.9997090963669035
0.9997098678047766
0.9997107415623319
0.9997117137227391
0.9997127797317148
0.9997139345558178
0.9997151728630812
0.9997164891962081
0.9997178781322724
0.9997193344286133
0.9997208531525692
0.9997224297927019
0.9997240603504164
0.9997257414117137
0.9997274701992791
0.9997292446054918
0.99973106320725
0.9997329252637664
0.999734830698677
0.9997367800679482
0.9997387745152106
0.9997408157162169
0.9997429058141856
0.999745047347832
0.999747243173872
0.9997494963857584
0.9997518102303405
0.999754188024047
0.9997566330700706
0.9997591485778935
0.999761737586337
0.9997644028911418
0.9997671469779261
0.9997699719611804
0.9997728795297988
0.9997758708994904
0.9997789467722663
0.9997821073030779
0.9997853520735798
0.9997886800729026
0.9997920896852671
0.9997955786842213
0.9997991442332681
0.9998027828926396
0.9998064906319791
0.9998102628487069
0.9998140943918613
0.9998179795912238
0.9998219122915591
0.9998258858917817
0.9998298933888883
0.9998339274264503
0.999837980347439
0.9998420442511053
0.9998461110535705
0.99985017255171
0.9998542204898185
0.9998582466284544
0.9998622428147497
0.999866201053379
0.9998701135772763
0.9998739729170996
0.9998777719683747
0.9998815040551816
0.9998851629892279
0.9998887431231331
0.9998922393967883
0.9998956473756934
0.999898963280279
0.9999021840053337
0.9999053071288182
0.9999083309095288
0.9999112542732891
0.9999140767875833
0.9999167986247974
0.9999194205145003
0.9999219436854674
0.9999243697984147
0.9999267008706796
0.9999289391943205
0.9999310872493345
0.9999331476138875
0.9999351228736088
0.999937015532132
0.9999388279251413
0.9999405621402387
0.9999422199449196
0.9999438027249425
0.9999453114352475
0.9999467465654793
0.9999481081219788
0.9999493956278727
0.9999506081426031
0.9999517443018466
0.999952802378354
0.9999537803637056
0.9999546760701509
0.9999554872504712
0.999956211733787
0.9999568475771505
0.9999573932276283
0.999957847667688
0.9999582105317857
0.9999584823041656
0.9999586646320762
0.9999587599888171
0.9999587701255555
0.9999586974953143
0.9999585524851424
0.9999583409335224
0.9999580101852392
0.999957548448332
0.9999573485705017
0.9999575127272746
0
0
0.999706867395778
0.9997070386199577
0.9997069753844241
0.9997068366016153
0.9997067499310343
0.9997067209394936
0.9997067928429845
0.9997069736086878
0.9997072583802854
0.999707647696825
0.9997081437182942
0.9997087463604838
0.9997094540038883
0.9997102642845763
0.9997111740891284
0.9997121795381327
0.9997132761469779
0.9997144590125683
0.9997157229745331
0.9997170627669297
0.9997184731654558
0.9997199491237144
0.9997214858941653
0.9997230791323297
0.9997247249834378
0.9997264201509607
0.9997281619469228
0.9997299483243524
0.9997317778925647
0.9997336499162395
0.9997355642994552
0.9997375215560432
0.9997395227677373
0.9997415695317243
0.999743663899257
0.9997458083070356
0.9997480055030682
0.9997502584687044
0.9997525703384622
0.9997549443191988
0.999757383610058
0.9997598913244973
0.9997624704155462
0.9997651236052943
0.9997678533194345
0.9997706616275297
0.999773550189505
0.99977652020872
0.9997795723918401
0.9997827069156021
0.9997859234004721
0.9997892208911137
0.9997925978435138
0.9997960521185943
0.9997995809820824
0.9998031811104315
0.999806848602571
0.999810578997277
0.9998143672959676
0.999818207990748
0.9998220950975298
0.9998260221940557
0.9998299824626548
0.9998339687375307
0.9998379735563492
0.9998419892158457
0.9998460078311072
0.9998500213981066
0.9998540218589831
0.9998580011694662
0.9998619513677369
0.9998658646439309
0.9998697334093809
0.9998735503646238
0.9998773085651141
0.9998810014835391
0.9998846230676012
0.9998881677921269
0.9998916307043892
0.9998950074615822
0.9998982943594859
0.9999014883514705
0.9999045870571451
0.9999075887601494
0.9999104923947703
0.9999132975213261
0.9999160042904837
0.9999186133969471
0.9999211260232066
0.9999235437743129
0.9999258686048774
0.9999281027397487
0.9999302485900204
0.9999323086662161
0.9999342854906464
0.99993618151106
0.9999379990177668
0.9999397400664618
0.9999414064089551
0.9999429994339639
0.9999445201200076
0.9999459690023087
0.9999473461553927
0.9999486511928183
0.9999498832851798
0.9999510411971093
0.9999521233435184
0.9999531278648004
0.9999540527204309
0.9999548957997674
0.9999556550461334
0.9999563285882942
0.9999569148841196
0.9999574128916826
0.999957822221369
0.9999581431291191
0.9999583765262545
0.9999585247341382
0.9999585921890383
0.9999585819007124
0.999958491969407
0.9999583323399959
0.9999581458297451
0.9999579397807775
0.9999578356309138
0.999957983471285
0
0
0.9997067156443673
0.9997067517127268
0.9997067365392167
0.999706727816826
0.9997067082619782
0.9997067422903781
0.9997068725941041
0.9997070988897768
0.9997074249258849
0.9997078553581047
0.9997083911601226
0.9997090314543222
0.9997097747926115
0.9997106188739332
0.9997115604659174
0.9997125956293351
0.9997137199145785
0.9997149284990122
0.9997162163276895
0.9997175782608029
0.9997190092127163
0.9997205042777313
0.9997220588424527
0.9997236686836213
0.9997253300499457
0.9997270397271778
0.9997287950862848
0.9997305941149285
0.9997324354327685
0.9997343182913739
0.9997362425597786
0.99973820869688
0.9997402177120692
0.9997422711155513
0.9997443708599457
0.9997465192747665
0.9997487189954183
0.9997509728883195
0.9997532839737213
0.9997556553477034
0.9997580901047438
0.9997605912621169
0.999763161687252
0.999765804029028
0.9997685206538187
0.9997713135869571
0.9997741844601282
0.9997771344650507
0.9997801643136937
0.9997832742051387
0.999786463799114
0.9997897321961431
0.9997930779241897
0.9997964989316384
0.9997999925864263
0.999803555681131
0.9998071844438118
0.9998108745544132
0.9998146211665527
0.9998184189345138
0.9998222620452848
0.9998261442554703
0.9998300589329029
0.9998339991027501
0.9998379574978876
0.9998419266132431
0.9998458987637742
0.9998498661456466
0.9998538209001152
0.9998577551794978
0.9998616612145531
0.9998655313824651
0.9998693582745605
0.9998731347627842
0.9998768540639118
0.9998805098004127
0.9998840960568566
0.9998876074307588
0.9998910390767715
0.9998943867432146
0.9998976467999895
0.9999008162570768
0.9999038927729449
0.9999068746523863
0.9999097608334967
0.9999125508637428
0.9999152448652978
0.9999178434900825
0.9999203478651916
0.9999227595296584
0.9999250803637261
0.999927312512052
0.999929458302447
0.9999315201619534
0.9999335005321862
0.9999354017859967
0.9999372261475541
0.9999389756179848
0.9999406519086745
0.9999422563842767
0.9999437900173441
0.9999452533563431
0.9999466465085931
0.9999479691393935
0.9999492204882788
0.9999503994029987
0.9999515043913855
0.9999525336906447
0.9999534853528806
0.9999543573459042
0.9999551476692942
0.9999558544813298
0.9999564762228775
0.9999570117413262
0.9999574604728532
0.9999578226554238
0.9999580992678883
0.9999582917817398
0.9999584033652302
0.9999584405996954
0.9999584092506106
0.9999583112558998
0.9999581883460765
0.9999581023099888
0.9999580385556885
0.9999580523131599
0
0
0.9997067333499201
0.9997067127024984
0.9997066968796899
0.9997066899974933
0.9997067104086245
0.9997067997060607
0.999706967546108
0.9997072263905843
0.999707586740364
0.9997080506850963
0.9997086183392262
0.9997092895104593
0.9997100628141722
0.9997109356417055
0.9997119046042149
0.9997129657318445
0.9997141145680198
0.9997153463051252
0.9997166559379076
0.9997180384022765
0.9997194887011616
0.9997210020213598
0.9997225738392126
0.9997242000124485
0.9997258768570938
0.9997276012089928
0.9997293704696715
0.9997311826365867
0.9997330363181343
0.9997349307340826
0.9997368657023279
0.999738841613059
0.9997408593915798
0.9997429204511671
0.9997450266374294
0.9997471801656856
0.999749383552919
0.9997516395458307
0.9997539510465046
0.9997563210371033
0.9997587525049385
0.9997612483691434
0.9997638114100361
0.9997664442021378
0.9997691490516508
0.9997719279390552
0.9997747824673452
0.9997777138162782
0.9997807227028962
0.9997838093484528
0.9997869734518042
0.9997902141692218
0.9997935301005457
0.9997969192815369
0.9998003791822785
0.9998039067114359
0.9998074982262096
0.9998111495477943
0.9998148559821766
0.9998186123461057
0.9998224129980743
0.9998262518741416
0.9998301225284199
0.9998340181780178
0.9998379317522057
0.9998418559455017
0.9998457832743355
0.9998497061368583
0.9998536168753911
0.99985750784092
0.9998613714589336
0.9998652002958407
0.9998689871250847
0.9998727249920188
0.999876407276531
0.9998800277523642
0.9998835806420545
0.999887060666412
0.9998904630874941
0.9998937837440838
0.9998970190787684
0.9999001661558392
0.9999032226693766
0.9999061869410584
0.9999090579074309
0.999911835096604
0.999914518594551
0.999917109001459
0.9999196073787979
0.999922015188042
0.9999243342221887
0.999926566531461
0.999928714344756
0.9999307799885798
0.9999327658053404
0.9999346740729685
0.9999365069278964
0.9999382662934244
0.9999399538154939
0.999941570807786
0.9999431182079449
0.9999445965465553
0.9999460059302633
0.9999473460401828
0.9999486161463703
0.9999498151387755
0.9999509415747043
0.9999519937425805
0.9999529697411127
0.9999538675715035
0.9999546852406989
0.9999554208793292
0.9999560728759466
0.9999566399977261
0.9999571214755921
0.9999575171888267
0.99995782808029
0.9999580561360601
0.9999582035722991
0.9999582743744024
0.9999582802573608
0.9999582346624643
0.9999581482002217
0.999958061013398
0.9999579909317547
0.999957942294341
0
0
0.9997069171050958
0.9997068301734637
0.999706770069118
0.9997067440923864
0.9997067804509208
0.9997068884252771
0.9997070771726576
0.9997073615672544
0.9997077468771495
0.9997082349905158
0.9997088272296735
0.9997095231305603
0.9997103207385722
0.9997112172672562
0.9997122092570987
0.9997132926313699
0.9997144628537524
0.9997157150926409
0.9997170443544032
0.9997184456060624
0.9997199138949201
0.9997214444593508
0.9997230328273309
0.9997246749021347
0.9997263670346267
0.9997281060813527
0.9997298894480114
0.9997317151182985
0.9997335816684316
0.9997354882678904
0.9997374346671558
0.9997394211734199
0.9997414486154018
0.999743518298548
0.9997456319519771
0.9997477916686014
0.9997499998398929
0.9997522590867411
0.9997545721878477
0.9997569420070159
0.9997593714206328
0.9997618632465266
0.9997644201752605
0.9997670447048084
0.9997697390793986
0.9997725052331944
0.9997753447393237
0.9997782587646535
0.9997812480305793
0.9997843127799925
0.9997874527504986
0.9997906671538817
0.9997939546617512
0.9997973133972639
0.9998007409327858
0.999804234293336
0.9998077899656541
0.9998114039127235
0.9998150715935941
0.9998187879883415
0.9998225476280022
0.9998263446293192
0.9998301727341091
0.9998340253530493
0.9998378956136258
0.9998417764119565
0.9998456604681223
0.9998495403845806
0.9998534087071519
0.9998572579879813
0.9998610808497934
0.9998648700506704
0.9998686185484992
0.9998723195641651
0.999875966642504
0.9998795537099909
0.9998830751281195
0.9998865257414246
0.9998899009191393
0.9998931965895352
0.999896409266077
0.999899536064641
0.9999025747112008
0.9999055235395417
0.9999083814787636
0.9999111480305498
0.9999138232363945
0.9999164076352259
0.9999189022120932
0.9999213083388261
0.9999236277077888
0.9999258622600699
0.99992801410963
0.9999300854650858
0.9999320785509329
0.999933995530111
0.9999358384298364
0.9999376090726627
0.9999393090146632
0.9999409394925538
0.9999425013814367
0.9999439951646675
0.999945420917105
0.9999467783027456
0.9999480665874264
0.9999492846669497
0.9999504311104715
0.9999515042186038
0.9999525020957889
0.9999534227364658
0.9999542641218336
0.9999550243218176
0.9999557016090516
0.9999562946037435
0.999956802414661
0.9999572246879248
0.9999575617519337
0.9999578152265857
0.999957988297045
0.9999580845757621
0.999958110678292
0.999958081990486
0.9999580083069053
0.9999578992481494
0.9999577814134575
0.9999576615510877
0
0
0.9997072286313977
0.9997070501118357
0.9997069296143627
0.9997068769876205
0.9997069014062708
0.9997070074381271
0.9997072061855476
0.9997075040267287
0.999707903886762
0.9997084086615811
0.9997090189050644
0.9997097333231114
0.9997105497554158
0.9997114652631102
0.9997124761513886
0.9997135781697729
0.9997147666886946
0.9997160368212707
0.9997173835423352
0.9997188018106756
0.9997202866823961
0.9997218334128446
0.9997234375482219
0.9997250950060662
0.9997268021431991
0.9997285558103547
0.9997303533932206
0.9997321928398353
0.9997340726745207
0.9997359919987931
0.9997379504799335
0.9997399483280833
0.999741986262908
0.9997440654709879
0.9997461875552147
0.9997483544775306
0.999750568496386
0.9997528321002983
0.9997551479388775
0.9997575187526231
0.9997599473027353
0.9997624363020831
0.9997649883483669
0.9997676058603846
0.9997702910181936
0.999773045707818
0.9997758714710341
0.9997787694606275
0.9997817404014204
0.9997847845572462
0.9997879017039755
0.9997910911086115
0.999794351514419
0.9997976811320014
0.9998010776362262
0.9998045381688438
0.9998080593466754
0.9998116372752057
0.9998152675674323
0.9998189453678227
0.9998226653812091
0.9998264219064581
0.999830208874722
0.9998340198920606
0.9998378482861713
0.9998416871569261
0.9998455294303529
0.9998493679156202
0.9998531953645237
0.9998570045328684
0.9998607882430856
0.9998645394473094
0.9998682512900852
0.9998719171698048
0.9998755307979089
0.9998790862548571
0.9998825780418584
0.9998860011273483
0.9998893509872484
0.9998926236380772
0.9998958156621022
0.9998989242238042
0.9999019470770946
0.9999048825628735
0.999907729596714
0.9999104876466621
0.9999131567013547
0.9999157372288922
0.9999182301271251
0.9999206366662395
0.9999229584247405
0.9999251972201297
0.9999273550357529
0.9999294339454313
0.9999314360376176
0.9999333633408936
0.9999352177526567
0.9999370009728481
0.9999387144445272
0.9999403593029946
0.9999419363350247
0.9999434459496078
0.999944888161331
0.9999462625872866
0.9999475684580588
0.9999488046430441
0.9999499696900649
0.9999510618787051
0.9999520792861077
0.9999530198644818
0.9999538815312912
0.999954662269657
0.9999553602276713
0.9999559738218404
0.999956501892579
0.9999569438830721
0.9999572998543487
0.9999575705598691
0.9999577583449982
0.9999578675952616
0.9999579025546845
0.9999578704733565
0.9999577826835063
0.9999576440818561
0.9999574632368161
0.9999572490746496
0
0
0.9997076138226902
0.9997073404036019
0.9997071554344922
0.9997070622869668
0.9997070599768355
0.9997071542110534
0.9997073502391258
0.9997076501639547
0.9997080567367475
0.999708571202589
0.9997091928320729
0.9997099200340268
0.9997107503398811
0.9997116804086875
0.9997127062747763
0.999713823524156
0.9997150273981403
0.9997163129107496
0.9997176749736101
0.999719108508666
0.999720608550371
0.9997221703407511
0.9997237894156056
0.9997254616797647
0.9997271834706055
0.9997289516093726
0.9997307634399022
0.9997326168545652
0.999734510307554
0.9997364428158891
0.9997384139487255
0.9997404238057361
0.9997424729855056
0.9997445625450107
0.9997466939513584
0.9997488690270431
0.9997510898900003
0.9997533588897801
0.9997556785411177
0.9997580514561616
0.9997604802765435
0.9997629676063957
0.9997655159473119
0.9997681276361574
0.9997708047864906
0.999773549234257
0.9997763624882823
0.9997792456859781
0.9997821995545713
0.9997852243780588
0.9997883199700182
0.9997914856523115
0.9997947202396826
0.9997980220301828
0.9998013888013455
0.9998048178119839
0.9998083058094948
0.9998118490425213
0.9998154432788396
0.9998190838283094
0.9998227655707349
0.9998264829884598
0.9998302302035016
0.9998340010190027
0.9998377889647297
0.9998415873463141
0.9998453892978529
0.9998491878374421
0.9998529759251192
0.9998567465226287
0.9998604926543383
0.9998642074685606
0.9998678842984564
0.9998715167216377
0.9998750986175405
0.9998786242216005
0.9998820881752501
0.9998854855707725
0.9998888119900725
0.9998920635364897
0.9998952368588658
0.9998983291671911
0.9999013382392865
0.9999042624181523
0.9999071005997882
0.9999098522114824
0.9999125171807937
0.999915095895651
0.9999175891562256
0.9999199981194399
0.9999223242371758
0.9999245691894484
0.9999267348139579
0.9999288230335812
0.9999308357834706
0.9999327749394936
0.999934642249776
0.999936439271112
0.9999381673119289
0.9999398273834174
0.9999414201602776
0.9999429459523476
0.9999444046881577
0.9999457959111883
0.9999471187893065
0.9999483721374863
0.9999495544536154
0.9999506639670813
0.9999516986994129
0.9999526565350176
0.9999535353003032
0.999954332854177
0.9999550471912831
0.9999556765395808
0.9999562194460261
0.9999566749301063
0.9999570427033718
0.9999573231640287
0.9999575173674199
0.9999576280412218
0.9999576591166406
0.9999576136895837
0.9999574974508558
0.999957316161984
0.9999570686761666
0.9999567577707197
0
0
0.9997080364635796
0.999707674618091
0.9997074233020448
0.9997072810217951
0.9997072454839812
0.9997073191289259
0.9997075024942012
0.9997077968295212
0.9997082030402602
0.9997087204535645
0.9997093477050434
0.9997100826585777
0.9997109222526812
0.9997118627682575
0.9997128999915186
0.9997140292939988
0.9997152457464921
0.9997165442438597
0.9997179196130273
0.9997193667126818
0.9997208805296026
0.9997224562680168
0.9997240894295125
0.9997257758830486
0.9997275119244824
0.9997292943248118
0.9997311203666315
0.9997329878686508
0.9997348951983526
0.9997368412730722
0.9997388255499968
0.9997408480057727
0.9997429091065597
0.9997450097695224
0.9997471513168368
0.9997493354233826
0.9997515640593241
0.999753839428816
0.9997561639060581
0.9997585399698841
0.9997609701380282
0.9997634569021281
0.9997660026644368
0.9997686096771167
0.9997712799848775
0.9997740153716083
0.9997768173115397
0.9997796869253586
0.9997826249416105
0.999785631663604
0.99978870694198
0.9997918501530078
0.9997950601826318
0.9997983354162373
0.9998016737340655
0.9998050725121861
0.9998085286289157
0.9998120384765554
0.9998155979783109
0.9998192026102444
0.9998228474281022
0.9998265270988381
0.9998302359366266
0.9998339679431391
0.9998377168518031
0.9998414761757282
0.9998452392589106
0.9998489993302807
0.9998527495600701
0.9998564831179138
0.9998601932320235
0.9998638732486894
0.9998675166913203
0.9998711173181465
0.9998746691776903
0.9998781666610727
0.9998816045501995
0.9998849780609136
0.9998882828802056
0.999891515196651
0.9998946717233284
0.9998977497125764
0.9999007469620903
0.999903661812008
0.999906493132819
0.9999092403041153
0.9999119031844077
0.9999144820724343
0.9999169776606127
0.9999193909814643
0.9999217233480587
0.9999239762896892
0.9999261514841452
0.9999282506880838
0.9999302756670877
0.9999322281270722
0.9999341096487102
0.9999359216265455
0.9999376652143818
0.9999393412784543
0.9999409503597277
0.9999424926464856
0.999943967958141
0.9999453757409446
0.9999467150759753
0.9999479846995293
0.9999491830355786
0.9999503082396421
0.9999513582535113
0.9999523308703443
0.9999532238077251
0.9999540347851957
0.9999547616105852
0.9999554022827968
0.9999559550851138
0.9999564186472952
0.9999567920837353
0.9999570752282139
0.9999572684742473
0.9999573726804508
0.9999573899589687
0.999957322495809
0.9999571714687052
0.9999569394927809
0.9999566240629546
0.9999562233314886
0
0
0.9997084736345775
0.99970802967532
0.9997077123960761
0.999707518798534
0.9997074457117558
0.9997074920384076
0.9997076566541695
0.9997079393503271
0.9997083389563443
0.9997088538108705
0.9997094817784027
0.9997102199158393
0.9997110646505482
0.9997120119151939
0.9997130571878659
0.9997141955958246
0.9997154220337156
0.9997167312619358
0.9997181180008116
0.9997195770257777
0.999721103257051
0.999722691841441
0.9997243382264409
0.9997260382257614
0.9997277880750808
0.9997295844772727
0.9997314246367289
0.999733306282569
0.9997352276807184
0.9997371876350797
0.9997391854782189
0.9997412210521687
0.9997432946801115
0.9997454071298334
0.9997475595699472
0.9997497535199624
0.9997519907953375
0.9997542734486606
0.9997566037081289
0.9997589839144437
0.999761416457218
0.9997639037119145
0.9997664479782532
0.9997690514209463
0.9997717160135045
0.9997744434857654
0.9997772352756846
0.9997800924858277
0.9997830158449064
0.9997860056746126
0.9997890618619171
0.9997921838369419
0.9997953705564401
0.9997986204928867
0.999801931629132
0.9998053014585411
0.9998087269905277
0.9998122047613647
0.999815730850141
0.9998193008997186
0.9998229101425289
0.9998265534310213
0.9998302252725586
0.9998339198685098
0.9998376311572632
0.9998413528608194
0.9998450785345819
0.9998488016198909
0.999852515498783
0.9998562135503897
0.9998598892083189
0.9998635360182909
0.9998671476952486
0.9998707181791019
0.9998742416882308
0.9998777127698458
0.9998811263463
0.9998844777564634
0.9998877627913016
0.9998909777228738
0.999894119326032
0.9998971848922349
0.9999001722350022
0.9999030796866911
0.999905906086461
0.9999086507594496
0.9999113134874038
0.9999138944711876
0.9999163942858019
0.9999188138287323
0.9999211542626354
0.9999234169535327
0.9999256034058268
0.999927715195575
0.9999297539035409
0.9999317210495998
0.9999336180300874
0.9999354460596565
0.9999372061191444
0.9999388989108443
0.9999405248224292
0.9999420839005887
0.9999435758352136
0.9999449999547212
0.9999463552327872
0.9999476403065162
0.9999488535058091
0.9999499928932899
0.9999510563136327
0.9999520414514116
0.9999529458974958
0.9999537672216322
0.9999545030449966
0.9999551511172634
0.9999557094123432
0.9999561762107627
0.9999565501223134
0.999956830195503
0.9999570160639664
0.999957107616404
0.9999571049770389
0.9999570089161356
0.9999568190041519
0.9999565345133572
0.999956152094567
0.9999556684594634
0
0
0.9997089077871107
0.9997083876795955
0.9997080070388801
0.9997077623425942
0.9997076489887878
0.9997076642547181
0.999707805970661
0.9997080721468868
0.999708460416849
0.9997089682863844
0.9997095926913221
0.9997103300370811
0.9997111762983941
0.9997121270074867
0.9997131773257728
0.9997143221473732
0.999715556182191
0.9997168740407975
0.9997182703251044
0.9997197397151717
0.9997212770500806
0.99972287740366
0.9997245361537145
0.9997262490431077
0.999728012231839
0.9997298223395277
0.9997316764778095
0.999733572272351
0.9997355078744279
0.9997374819622445
0.9997394937323338
0.9997415428815709
0.9997436295804728
0.9997457544385956
0.999747918462941
0.9997501230103742
0.9997523697351006
0.999754660532284
0.9997569974788995
0.9997593827728922
0.9997618186716792
0.9997643074309744
0.9997668512448509
0.99976945218787
0.9997721121600147
0.9997748328350765
0.9997776156130378
0.9997804615769068
0.9997833714543604
0.9997863455844772
0.9997893838897457
0.9997924858534906
0.9997956505027759
0.9997988763968059
0.9998021616208093
0.999805503785343
0.9998089000309375
0.99981234703798
0.9998158410417145
0.9998193778521985
0.9998229528790733
0.9998265611609397
0.9998301973991288
0.9998338559956113
0.9998375310947496
0.9998412166285493
0.999844906365013
0.9998485939591367
0.99985227300603
0.9998559370955753
0.9998595798679732
0.9998631950694626
0.9998667766074503
0.9998703186042364
0.9998738154484854
0.999877261843582
0.9998806528519991
0.9998839839348285
0.9998872509856662
0.999890450358105
0.9998935788861599
0.9998966338970846
0.9998996132161325
0.9999025151629898
0.9999053385397534
0.9999080826105132
0.9999107470727798
0.999913332021177
0.999915837904033
0.9999182654736574
0.9999206157312833
0.9999228898677998
0.9999250892015396
0.9999272151144896
0.9999292689883745
0.9999312521421081
0.9999331657721126
0.9999350108969844
0.9999367883079037
0.9999384985260891
0.9999401417684466
0.9999417179223674
0.9999432265304286
0.9999446667854937
0.9999460375364391
0.999947337304418
0.9999485643092928
0.999949716505729
0.9999507916280906
0.9999517872425326
0.9999527008048997
0.9999535297250158
0.9999542714352432
0.9999549234541845
0.9999554834488658
0.9999559493157439
0.999956319231509
0.9999565916256257
0.9999567652533996
0.9999568392126731
0.999956812499203
0.9999566842143494
0.9999564529556101
0.9999561164864712
0.9999556701747422
0.9999551102665263
0
0
0.999709325055764
0.9997087350448791
0.9997082946598255
0.9997079999332664
0.9997078454472493
0.9997078277570961