# vtk DataFile Version 2.0
2D-ADE data file 
ASCII
DATASET RECTILINEAR_GRID
DIMENSIONS 128 128 1 
X_COORDINATES 128 int
0 1 2 3 4 5 6 7 8 9 10 11 12 13 14 15 16 17 18 19 20 21 22 23 24 25 26 27 28 29 30 31 32 33 34 35 36 37 38 39 40 41 42 43 44 45 46 47 48 49 50 51 52 53 54 55 56 57 58 59 60 61 62 63 64 65 66 67 68 69 70 71 72 73 74 75 76 77 78 79 80 81 82 83 84 85 86 87 88 89 90 91 92 93 94 95 96 97 98 99 100 101 102 103 104 105 106 107 108 109 110 111 112 113 114 115 116 117 118 119 120 121 122 123 124 125 126 127 
Y_COORDINATES 128 int
0 1 2 3 4 5 6 7 8 9 10 11 12 13 14 15 16 17 18 19 20 21 22 23 24 25 26 27 28 29 30 31 32 33 34 35 36 37 38 39 40 41 42 43 44 45 46 47 48 49 50 51 52 53 54 55 56 57 58 59 60 61 62 63 64 65 66 67 68 69 70 71 72 73 74 75 76 77 78 79 80 81 82 83 84 85 86 87 88 89 90 91 92 93 94 95 96 97 98 99 100 101 102 103 104 105 106 107 108 109 110 111 112 113 114 115 116 117 118 119 120 121 122 123 124 125 126 127 
Z_COORDINATES 1 int
0
POINT_DATA 16384
SCALARS density double
LOOKUP_TABLE default
0
0
0
0
0
0
0
0
0
0
0
0
0
0
0
0
0
0
0
0
0
0
0
0
0
0
0
0
0
0
0
0
0
0
0
0
0
0
0
0
0
0
0
0
0
0
0
0
0
0
0
0
0
0
0
0
0
0
0
0
0
0
0
0
0
0
0
0
0
0
0
0
0
0
0
0
0
0
0
0
0
0
0
0
0
0
0
0
0
0
0
0
0
0
0
0
0
0
0
0
0
0
0
0
0
0
0
0
0
0
0
0
0
0
0
0
0
0
0
0
0
0
0
0
0
0
0
0
0
0.9996874814485317
0.9996875479673611
0.9996874579268176
0.9996871552955491
0.9996866352491368
0.9996859360083492
0.9996850945635751
0.9996841428995029
0.999683109684828
0.9996820208853617
0.9996808993076653
0.9996797647729201
0.999678634457468
0.9996775232095152
0.9996764438087782
0.999675407208721
0.9996744227582038
0.9996734984000327
0.9996726408472436
0.9996718557401632
0.999671147786267
0.9996705208845588
0.9996699782359806
0.9996695224412441
0.9996691555872532
0.9996688793231616
0.9996686949269521
0.9996686033633567
0.9996686053338169
0.9996687013191444
0.9996688916154578
0.9996691763639469
0.999669555574958
0.9996700291468743
0.999670596880226
0.9996712584874531
0.9996720135987097
0.9996728617640939
0.9996738024526605
0.9996748350485675
0.99967595884469
0.9996771730340315
0.9996784766992374
0.9996798688005262
0.999681348162327
0.9996829134589165
0.9996845631993405
0.9996862957118826
0.9996881091283645
0.9996900013685301
0.9996919701247695
0.9996940128474375
0.9996961267310073
0.999698308701295
0.999700555403987
0.9997028631946906
0.9997052281307205
0.9997076459648214
0.9997101121410276
0.9997126217928255
0.9997151697438015
0.9997177505109092
0.9997203583105035
0.9997229870672436
0.999725630425971
0.9997282817666172
0.9997309342222054
0.9997335806999453
0.9997362139054292
0.9997388263698783
0.9997414104803724
0.9997439585129595
0.9997464626685135
0.9997489151111565
0.9997513080090634
0.9997536335773903
0.9997558841230787
0.9997580520912172
0.9997601301126531
0.9997621110524852
0.9997639880590785
0.9997657546131901
0.9997674045768187
0.9997689322413473
0.9997703323745702
0.9997716002661768
0.9997727317712992
0.9997737233517148
0.9997745721143438
0.9997752758466943
0.9997758330489517
0.9997762429624396
0.9997765055942468
0.9997766217378479
0.9997765929896252
0.9997764217612454
0.9997761112879403
0.9997756656327823
0.9997750896871542
0.9997743891676735
0.9997735706099129
0.9997726413593522
0.9997716095600566
0.9997704841416697
0.999769274805371
0.9997679920095031
0.9997666469556262
0.9997652515757711
0.9997638185216411
0.9997623611564391
0.9997608935497507
0.999759430475571
0.9997579874130278
0.9997565805489393
0.9997552267765015
0.9997539436814127
0.9997527495016021
0.9997516630820146
0.999750703711215
0.9997498906655476
0.999749242024203
0.9997487747022283
0.9997485031664338
0.9997484312525015
0.9997485001828414
0.9997486253236174
0
0
0.9996874149502284
0.9996874815066146
0.9996873815314772
0.9996870917518764
0.9996866299118832
0.9996860128135645
0.9996852661423731
0.9996844163858108
0.9996834889306614
0.9996825066028293
0.9996814899447571
0.9996804572426783
0.9996794246278021
0.9996784062164945
0.9996774143020275
0.9996764595398189
0.9996755511216986
0.9996746969377422
0.9996739037259612
0.9996731772089347
0.9996725222176203
0.9996719428031051
0.9996714423370412
0.9996710236015927
0.9996706888695813
0.9996704399755971
0.9996702783786753
0.9996702052172097
0.999670221356615
0.9996703274303217
0.9996705238745436
0.9996708109573348
0.9996711888023287
0.9996716574076103
0.9996722166600852
0.9996728663457566
0.9996736061562377
0.9996744356918766
0.9996753544618101
0.9996763618812825
0.9996774572665358
0.9996786398275843
0.9996799086591621
0.9996812627301385
0.9996827008716791
0.9996842217644291
0.9996858239249862
0.999687505691925
0.9996892652116318
0.9996911004241943
0.9996930090495982
0.9996949885744623
0.9996970362395544
0.9996991490283014
0.9997013236565258
0.9997035565636095
0.999705843905298
0.9997081815483267
0.9997105650670667
0.9997129897423424
0.9997154505626008
0.9997179422275506
0.9997204591544219
0.9997229954869277
0.9997255451070428
0.9997281016496324
0.9997306585200103
0.9997332089144016
0.9997357458433362
0.9997382621579013
0.9997407505788114
0.9997432037281682
0.9997456141638074
0.9997479744160367
0.9997502770266032
0.9997525145896338
0.9997546797943161
0.9997567654690165
0.9997587646265419
0.9997606705101879
0.999762476640248
0.9997641768605746
0.9997657653848457
0.9997672368421063
0.9997685863212256
0.9997698094138401
0.9997709022554334
0.9997718615641498
0.9997726846770231
0.9997733695832679
0.9997739149543783
0.9997743201707472
0.999774585344639
0.9997747113393322
0.9997746997843528
0.9997745530867476
0.9997742744384377
0.999773867819721
0.999773337999109
0.9997726905296974
0.9997719317423948
0.9997710687363358
0.9997701093669276
0.9997690622319702
0.999767936656384
0.9997667426760484
0.9997654910212924
0.9997641931004804
0.9997628609840816
0.9997615073893367
0.999760145665393
0.999758789778093
0.9997574542925389
0.9997561543496669
0.9997549056328213
0.9997537243155159
0.9997526269707138
0.9997516303835015
0.9997507512676083
0.9997500058603066
0.9997494093472694
0.999748973659888
0.9997487041528837
0.999748594832289
0.99974862393309
0.9997487483484865
0
0
0.999687504969124
0.9996875815968175
0.9996874814453163
0.9996872054254673
0.9996867797381953
0.9996862166421452
0.999685538064771
0.999684766012425
0.99968392195749
0.9996830258138591
0.9996820960232304
0.9996811492499704
0.9996802003867682
0.9996792626360382
0.9996783476336739
0.9996774655714169
0.999676625326704
0.9996758345917013
0.999675099996894
0.9996744272266929
0.9996738211265497
0.9996732858014513
0.9996728247056988
0.9996724407242812
0.999672136246089
0.9996719132294624
0.9996717732603912
0.9996717176038821
0.999671747248823
0.9996718629468346
0.9996720652454288
0.9996723545159316
0.9996727309764732
0.9996731947104704
0.9996737456808894
0.9996743837406777
0.9996751086396458
0.999675920028161
0.9996768174579187
0.9996778003801272
0.9996788681413704
0.999680019977456
0.9996812550055081
0.9996825722145928
0.9996839704551266
0.9996854484273424
0.9996870046690565
0.9996886375429889
0.9996903452238888
0.9996921256856856
0.9996939766889226
0.9996958957686785
0.9996978802232188
0.999699927103577
0.9997020332042912
0.9997041950554807
0.9997064089164762
0.9997086707711709
0.9997109763252829
0.9997133210056764
0.9997156999619105
0.9997181080701295
0.9997205399394422
0.9997229899208592
0.9997254521189078
0.9997279204059467
0.9997303884392625
0.9997328496809156
0.9997352974203724
0.9997377247998344
0.999740124842246
0.9997424904818406
0.9997448145971357
0.9997470900461776
0.9997493097038999
0.9997514665013217
0.9997535534663915
0.9997555637661617
0.9997574907500306
0.9997593279936949
0.999761069343516
0.999762708960894
0.9997642413663334
0.9997656614827721
0.9997669646778506
0.9997681468046907
0.9997692042408655
0.9997701339251694
0.9997709333918868
0.9997716008022155
0.9997721349726154
0.9997725353997879
0.9997728022821446
0.9997729365375658
0.9997729398173907
0.9997728145165595
0.9997725637799583
0.9997721915049936
0.9997717023405819
0.9997711016826893
0.9997703956667174
0.9997695911569882
0.9997686957337081
0.9997677176777353
0.9997666659535835
0.9997655501909823
0.9997643806653662
0.9997631682774806
0.9997619245322109
0.9997606615163357
0.9997593918745962
0.9997581287827879
0.9997568859158461
0.9997556774058987
0.9997545177832116
0.9997534218905276
0.9997524047698355
0.9997514814665063
0.9997506666967345
0.9997499742662006
0.9997494167449068
0.9997490040873526
0.9997487413140302
0.999748622970646
0.9997486524675643
0.9997488164347001
0
0
0.9996878081687778
0.999687872146788
0.9996877573835649
0.9996874804244197
0.9996870682664294
0.9996865362019892
0.9996859031305241
0.99968518682761
0.9996844056230554
0.9996835770253698
0.999682717366732
0.9996818415788891
0.9996809632192624
0.9996800944657284
0.9996792461633865
0.9996784279027879
0.9996776481156653
0.9996769141728128
0.9996762324817223
0.9996756085817747
0.9996750472349701
0.99967455251103
0.9996741278661827
0.9996737762155787
0.9996734999991628
0.9996733012412401
0.9996731816037728
0.9996731424337897
0.9996731848050472
0.9996733095543493
0.9996735173127153
0.9996738085318073
0.9996741835058175
0.9996746423892205
0.9996751852105895
0.999675811882872
0.9996765222103218
0.9996773158924561
0.9996781925252481
0.999679151599889
0.9996801924993358
0.9996813144929628
0.9996825167295221
0.9996837982287182
0.999685157871603
0.9996865943900713
0.9996881063556695
0.999689692167977
0.9996913500427717
0.9996930780002223
0.9996948738533211
0.9996967351967755
0.9996986593965801
0.9997006435804606
0.9997026846294068
0.9997047791704732
0.9997069235710551
0.9997091139347858
0.9997113460992628
0.9997136156357197
0.9997159178508285
0.9997182477907206
0.9997206002473897
0.9997229697675261
0.9997253506639107
0.9997277370293801
0.9997301227534497
0.999732501541562
0.9997348669369912
0.999737212345326
0.9997395310615108
0.9997418162993021
0.9997440612230687
0.9997462589817334
0.9997484027447279
0.999750485739695
0.9997525012917619
0.9997544428640566
0.9997563040992465
0.9997580788617233
0.9997597612801705
0.9997613457901068
0.9997628271761121
0.9997642006133116
0.999765461707815
0.9997666065356856
0.9997676316801435
0.9997685342666082
0.9997693119953059
0.9997699631710932
0.9997704867302826
0.9997708822641772
0.9997711500391766
0.999771291013251
0.9997713068487312
0.9997711999213088
0.9997709733253033
0.9997706308751884
0.9997701771035453
0.9997696172555398
0.9997689572801781
0.9997682038185354
0.9997673641892736
0.9997664463716829
0.9997654589865838
0.9997644112752792
0.9997633130767861
0.9997621748033443
0.9997610074141157
0.9997598223866002
0.9997586316849019
0.9997574477229799
0.9997562833205811
0.9997551516486408
0.9997540661593537
0.9997530404840416
0.9997520882883082
0.9997512230770841
0.9997504579951373
0.999749805354265
0.9997492760352192
0.9997488784376157
0.9997486198896921
0.9997485029592549
0.9997485436699082
0.999748746532312
0
0
0.9996883307610137
0.9996883363685514
0.9996881839041966
0.9996878906163839
0.999687476541743
0.9996869577882057
0.9996863509470479
0.9996856716439844
0.9996849357241562
0.999684158308211
0.9996833537068125
0.999682535229208
0.9996817150953741
0.9996809043869214
0.999680113071227
0.9996793500472323
0.9996786232060011
0.9996779395007944
0.9996773050228279
0.9996767250780362
0.9996762042621231
0.999675746532659
0.9996753552771055
0.9996750333763157
0.9996747832629641
0.9996746069749514
0.9996745062035823
0.9996744823367643
0.9996745364971922
0.9996746695758634
0.9996748822609651
0.9996751750625215
0.9996755483328914
0.9996760022835012
0.9996765369979416
0.9996771524417974
0.9996778484693614
0.9996786248275812
0.9996794811574056
0.9996804169928611
0.9996814317580289
0.9996825247622391
0.9996836951936552
0.9996849421115472
0.9996862644374338
0.9996876609453691
0.9996891302515607
0.9996906708035799
0.9996922808693487
0.9996939585261476
0.999695701649837
0.999697507904512
0.9996993747327853
0.9997012993469042
0.9997032787208899
0.9997053095838833
0.9997073884148878
0.9997095114390664
0.9997116746257694
0.99971387368843
0.9997161040864906
0.9997183610294557
0.9997206394832212
0.9997229341787425
0.9997252396231501
0.9997275501133404
0.9997298597521165
0.9997321624668536
0.9997344520307234
0.9997367220863944
0.9997389661721999
0.9997411777506285
0.9997433502390758
0.9997454770426563
0.9997475515889555
0.9997495673644622
0.999751517952514
0.9997533970724326
0.9997551986196409
0.9997569167063876
0.9997585457028338
0.9997600802780946
0.9997615154409564
0.9997628465798519
0.9997640695018027
0.9997651804699006
0.9997661762390588
0.999767054089619
0.9997678118585731
0.9997684479680283
0.9997689614507285
0.9997693519723172
0.9997696198502246
0.9997697660689522
0.99976979229171
0.999769700868285
0.9997694948391815
0.9997691779360112
0.9997687545782751
0.9997682298665993
0.9997676095726551
0.9997669001258871
0.9997661085973453
0.9997652426807532
0.9997643106711006
0.9997633214408437
0.9997622844138624
0.9997612095370514
0.9997601072493482
0.9997589884475725
0.9997578644482991
0.9997567469442241
0.9997556479525332
0.9997545797509834
0.999753554799542
0.9997525856424471
0.9997516847816899
0.9997508644832022
0.999750136576928
0.9997495121959054
0.9997490016168223
0.9997486134657046
0.9997483567449453
0.9997482391235563
0.9997482764198886
0.9997484803221451
0
0
0.9996890363737562
0.9996889588406832
0.9996887498678221
0.9996884217220756
0.9996879894472461
0.9996874677461868
0.999686870883745
0.9996862126257022
0.9996855065323942
0.9996847656732203
0.9996840025701531
0.9996832289699349
0.9996824557497574
0.9996816928761321
0.9996809493990484
0.9996802334652831
0.9996795523545422
0.999678912529133
0.999678319690439
0.9996777788387383
0.9996772943340069
0.9996768699560461
0.9996765089623049
0.999676214142749
0.9996759878709897
0.9996758321515551
0.9996757486628922
0.9996757387962424
0.9996758036902
0.9996759442612319
0.9996761612300903
0.9996764551444569
0.9996768263978272
0.9996772752449942
0.9996778018141832
0.9996784061162035
0.9996790880507
0.9996798474098534
0.9996806838796388
0.9996815970389837
0.9996825863569319
0.9996836511881547
0.9996847907669232
0.9996860041998545
0.9996872904575743
0.9996886483655739
0.999690076594418
0.9996915736495691
0.9996931378609838
0.9996947673727311
0.9996964601327978
0.999698213883309
0.9997000261513352
0.9997018942404912
0.9997038152235066
0.9997057859359465
0.9997078029712632
0.9997098626773352
0.9997119611546642
0.9997140942563641
0.9997162575900953
0.9997184465220545
0.9997206561831483
0.9997228814774259
0.999725117092875
0.9997273575146093
0.9997295970405254
0.9997318297994034
0.9997340497714892
0.9997362508114812
0.9997384266739138
0.9997405710407967
0.9997426775514587
0.9997447398343909
0.9997467515409866
0.999748706380912
0.9997505981589565
0.9997524208130381
0.9997541684531643
0.999755835400985
0.9997574162296887
0.9997589058038467
0.9997602993189327
0.9997615923400985
0.9997627808399241
0.9997638612347179
0.999764830419099
0.9997656857984486
0.9997664253189942
0.9997670474951532
0.9997675514339458
0.9997679368561616
0.9997682041141622
0.9997683542060737
0.9997683887863358
0.999768310172451
0.9997681213479848
0.9997678259617567
0.9997674283233582
0.9997669333950207
0.9997663467800465
0.9997656747078841
0.9997649240160994
0.9997641021293363
0.999763217035504
0.9997622772592084
0.9997612918325365
0.9997602702630167
0.9997592224985851
0.9997581588889118
0.9997570901422798
0.9997560272766921
0.9997549815640545
0.9997539644643821
0.9997529875458411
0.9997520623863407
0.9997512004667335
0.9997504130379289
0.9997497109651694
0.9997491045113198
0.9997486034483702
0.9997482168562439
0.999747954419644
0.9997478260639707
0.9997478450485889
0.9997480223534494
0
0
0.9996898900172098
0.9996897153812838
0.999689434530609
0.999689055842073
0.9996885913241044
0.9996880527525689
0.9996874520257671
0.9996868010043934
0.9996861113013488
0.9996853942059606
0.9996846605644627
0.9996839206348731
0.9996831840108066
0.9996824595604137
0.9996817553974834
0.9996810788810666
0.9996804366349672
0.9996798345791003
0.9996792779694674
0.9996787714439633
0.9996783190708239
0.9996779243978875
0.999677590500986
0.9996773200307414
0.9996771152567512
0.9996769781089322
0.999676910215435
0.9996769129372136
0.9996769873989095
0.9996771345162923
0.9996773550200708
0.9996776494763945
0.9996780183039532
0.9996784617880354
0.999678980091511
0.9996795732631104
0.9996802412430053
0.9996809838660641
0.9996818008628086
0.9996826918584416
0.9996836563699941
0.9996846938019354
0.9996858034403259
0.9996869844458292
0.9996882358456831
0.9996895565249263
0.9996909452169879
0.9996924004939292
0.9996939207564495
0.999695504223923
0.9996971489245965
0.999698852686194
0.9997006131270613
0.9997024276480827
0.9997042934255084
0.9997062074048949
0.9997081662963115
0.999710166570986
0.9997122044595338
0.9997142759519256
0.9997163767993267
0.999718502517927
0.9997206483948875
0.9997228094964759
0.9997249806785033
0.9997271565990877
0.9997293317338188
0.9997315003933186
0.9997336567432191
0.9997357948264992
0.9997379085881648
0.9997399919021508
0.9997420386003834
0.9997440425038098
0.9997459974552974
0.9997478973541427
0.999749736192037
0.9997515080901747
0.9997532073373097
0.9997548284283927
0.9997563661035527
0.9997578153870238
0.9997591716257491
0.9997604305272461
0.9997615881964464
0.9997626411710939
0.9997635864554251
0.9997644215517185
0.9997651444894815
0.9997657538518838
0.9997662487992577
0.9997666290893312
0.9997668950940795
0.9997670478129311
0.9997670888822966
0.9997670205812359
0.9997668458333224
0.9997665682046047
0.9997661918978079
0.9997657217427568
0.9997651631832289
0.9997645222602738
0.9997638055922482
0.9997630203516052
0.9997621742386732
0.9997612754524017
0.9997603326581884
0.9997593549525934
0.9997583518248035
0.9997573331143732
0.999756308964717
0.9997552897711423
0.9997542861223113
0.9997533087341653
0.9997523683759894
0.9997514757834243
0.9997506415607942
0.9997498760781985
0.9997491893966882
0.9997485911588492
0.9997480906930568
0.999747697086333
0.9997474197067008
0.9997472682472618
0.999747254545411
0.9997473871669891
0
0
0.9996908616665982
0.9996905809675853
0.999690217001363
0.9996897760889655
0.9996892673008904
0.999688699722275
0.9996880831598646
0.9996874275145907
0.9996867426066165
0.9996860380709572
0.9996853232158922
0.9996846069235432
0.9996838975636388
0.9996832029284851
0.9996825301999639
0.9996818859380792
0.9996812760852948
0.9996807059844045
0.9996801804062083
0.9996797035836318
0.9996792792493768
0.9996789106756594
0.9996786007141978
0.9996783518356596
0.9996781661673817
0.9996780455291199
0.9996779914660902
0.9996780052793554
0.9996780880530802
0.9996782406788894
0.9996784638770237
0.9996787582146155
0.9996791241208979
0.9996795618997072
0.9996800717391685
0.9996806537189428
0.9996813078149759
0.9996820339021255
0.9996828317546481
0.9996837010449051
0.9996846413403053
0.999685652098834
0.9996867326631866
0.9996878822538638
0.9996890999612583
0.9996903847370608
0.9996917353850476
0.9996931505515512
0.9996946287156913
0.9996961681796509
0.9996977670590913
0.9996994232739629
0.9997011345398257
0.9997028983599147
0.9997047120180715
0.9997065725727574
0.9997084768522704
0.9997104214513656
0.9997124027293988
0.9997144168101593
0.9997164595835167
0.9997185267090093
0.9997206136214876
0.9997227155389079
0.999724827472362
0.9997269442384018
0.999729060473714
0.9997311706521528
0.9997332691041542
0.9997353500384807
0.9997374075662809
0.9997394357273515
0.9997414285185371
0.9997433799240965
0.9997452839479162
0.9997471346473398
0.9997489261684468
0.9997506527824824
0.9997523089232319
0.999753889224988
0.9997553885608678
0.9997568020810782
0.9997581252508728
0.9997593538877629
0.9997604841977185
0.9997615128099142
0.9997624368097617
0.9997632537697956
0.9997639617781809
0.9997645594644452
0.9997650460222481
0.9997654212288426
0.9997656854611119
0.999765839707895
0.9997658855785749
0.9997658253077213
0.9997656617558391
0.9997653984061087
0.9997650393572466
0.9997645893124525
0.9997640535646388
0.9997634379779601
0.9997627489658785
0.9997619934657984
0.9997611789104908
0.9997603131962903
0.9997594046482081
0.9997584619818092
0.9997574942618144
0.9997565108570081
0.9997555213912385
0.9997545356899394
0.9997535637215486
0.9997526155326105
0.9997517011776146
0.9997508306446751
0.9997500137785652
0.9997492601987291
0.9997485792504215
0.9997479799752361
0.9997474711695217
0.9997470614916852
0.9997467597166607
0.9997465743722268
0.9997465156693729
0.9997465907064049
0
0
0.999691924371443
0.9996915314709464
0.9996910767230465
0.9996905648072869
0.999690002040659
0.9996893954928289
0.9996887529992382
0.9996880826095068
0.9996873924984024
0.9996866907706365
0.9996859853254014
0.9996852837591479
0.9996845932791529
0.9996839206440418
0.9996832721251253
0.9996826534855274
0.9996820699755915
0.9996815263415182
0.9996810268429888
0.9996805752776146
0.9996801750097178
0.9996798290020033
0.9996795398481831
0.9996793098058427
0.9996791408282959
0.9996790345951743
0.9996789925409038
0.9996790158811046
0.9996791056363482
0.999679262653489
0.9996794876241852
0.9996797811009174
0.9996801435102505
0.9996805751636955
0.9996810762659968
0.9996816469212276
0.9996822871365723
0.999682996824188
0.9996837758010597
0.9996846237872397
0.9996855404024183
0.9996865251611995
0.9996875774670585
0.9996886966053392
0.9996898817352887
0.9996911318814715
0.9996924459245806
0.9996938225919653
0.9996952604479229
0.9996967578840439
0.9996983131096766
0.9996999241427894
0.9997015888013059
0.9997033046951727
0.9997050692192438
0.9997068795472306
0.9997087326267975
0.9997106251760365
0.9997125536814071
0.9997145143973369
0.9997165033475811
0.9997185163284918
0.9997205489142955
0.9997225964644897
0.9997246541334374
0.9997267168822294
0.9997287794928689
0.9997308365847938
0.9997328826337636
0.9997349119930657
0.9997369189170285
0.9997388975867336
0.999740842137872
0.9997427466905671
0.9997446053810612
0.9997464123950262
0.9997481620023408
0.9997498485930363
0.9997514667142011
0.9997530111075019
0.9997544767470616
0.9997558588773103
0.9997571530505271
0.9997583551636527
0.9997594614940853
0.9997604687340214
0.999761374023069
0.999762174978693
0.9997628697242565
0.9997634569142474
0.9997639357564917
0.9997643060310064
0.9997645681053523
0.9997647229462007
0.9997647721270689
0.9997647178320075
0.999764562855283
0.9997643105969233
0.9997639650542511
0.9997635308093601
0.9997630130127191
0.999762417362914
0.9997617500827752
0.9997610178918994
0.9997602279758316
0.9997593879518805
0.9997585058317798
0.9997575899810801
0.9997566490753877
0.9997556920532034
0.9997547280652821
0.9997537664202087
0.9997528165264357
0.9997518878305722
0.9997509897521332
0.9997501316162271
0.999749322590433
0.9997485716258367
0.9997478874168599
0.9997472783895832
0.9997467527255933
0.9997463183715409
0.9997459832953375
0.99974575494706
0.9997456415232184
0.9997456489636916
0
0
0.9996930535039276
0.9996925450005865
0.999691994399838
0.9996914048637376
0.9996907806150739
0.9996901270512284
0.9996894502064212
0.9996887565192569
0.9996880526570683
0.9996873453130214
0.9996866410855094
0.9996859463727641
0.9996852672901226
0.9996846096109583
0.9996839787242472
0.9996833796098017
0.9996828168278963
0.9996822945205153
0.9996818164213253
0.9996813858727669
0.9996810058476566
0.9996806789740544
0.9996804075615765
0.9996801936285308
0.9996800389285565
0.9996799449765423
0.9996799130728928
0.999679944326217
0.9996800396737643
0.9996801998998542
0.999680425651817
0.9996807174537881
0.9996810757179968
0.9996815007539573
0.9996819927752818
0.9996825519045451
0.9996831781759978
0.9996838715365474
0.9996846318448621
0.9996854588690085
0.9996863522825095
0.9996873116592279
0.9996883364669931
0.9996894260603522
0.999690579672399
0.9996917964060382
0.9996930752246637
0.9996944149425941
0.9996958142152593
0.9996972715294673
0.9996987851937683
0.999700353329215
0.9997019738605707
0.9997036445082355
0.999705362780954
0.999707125969566
0.9997089311418632
0.9997107751388021
0.9997126545721349
0.9997145658236822
0.9997165050463176
0.9997184681668505
0.9997204508908709
0.9997224487097042
0.9997244569095377
0.9997264705828035
0.9997284846418684
0.9997304938350664
0.9997324927650838
0.9997344759096796
0.999736437644717
0.9997383722694162
0.9997402740337583
0.999742137167898
0.9997439559134472
0.999745724556427
0.9997474374617056
0.9997490891086444
0.9997506741277256
0.9997521873378267
0.9997536237838808
0.999754978774523
0.9997562479194515
0.9997574271660601
0.9997585128350633
0.9997595016546506
0.9997603907928997
0.9997611778879973
0.9997618610760113
0.999762439015799
0.9997629109108467
0.9997632765276602
0.9997635362105847
0.999763690892728
0.9997637421029499
0.9997636919686764
0.9997635432145867
0.9997632991570132
0.9997629636941967
0.9997625412923166
0.9997620369675118
0.9997614562638748
0.9997608052276957
0.9997600903779634
0.9997593186734226
0.9997584974761904
0.9997576345122147
0.9997567378285198
0.9997558157474655
0.9997548768179442
0.9997539297637281
0.9997529834288327
0.9997520467202397
0.9997511285485279
0.9997502377676019
0.9997493831140977
0.9997485731506588
0.9997478162172756
0.9997471203943045
0.9997464934799514
0.9997459430031079
0.9997454761562097
0.999745099946354
0.9997448208551434
0.9997446452983891
0.9997445780269709
0
0
0.9996942271186028
0.9996936015362908
0.9996929518314365
0.9996922799388077
0.9996915885431147
0.9996908815577097
0.9996901634947662
0.9996894393878896
0.9996887145343348
0.9996879943465107
0.9996872842268391
0.9996865894620344
0.9996859151444188
0.9996852661127049
0.9996846469091331
0.9996840617525643
0.9996835145238445
0.999683008762105
0.9996825476693784
0.9996821341220011
0.9996817706864408
0.9996814596386252
0.9996812029849873
0.9996810024846914
0.9996808596717031
0.9996807758765505
0.9996807522467935
0.9996807897662944
0.9996808892725643
0.9996810514724453
0.9996812769555834
0.9996815662060478
0.9996819196116843
0.999682337471615
0.9996828200015518
0.9996833673373744
0.9996839795367004
0.9996846565789058
0.9996853983633738
0.9996862047064221
0.9996870753367346
0.9996880098897287
0.9996890079007197
0.9996900687972955
0.999691191890799
0.9996923763673093
0.9996936212780424
0.9996949255295519
0.9996962878736732
0.9996977068975705
0.9996991810138558
0.9997007084511191
0.9997022872448686
0.9997039152291899
0.9997055900291464
0.9997073090542168
0.9997090694927958
0.9997108683080378
0.999712702235083
0.9997145677799106
0.9997164612198718
0.9997183786061116
0.999720315767927
0.9997222683192387
0.9997242316672089
0.9997262010231345
0.9997281714156357
0.9997301377062111
0.9997320946071475
0.9997340367018022
0.9997359584672066
0.9997378542989378
0.9997397185381675
0.9997415455007623
0.9997433295082981
0.999745064920785
0.9997467461709223
0.9997483677996059
0.9997499244924603
0.9997514111170545
0.999752822760534
0.9997541547672756
0.9997554027762662
0.9997565627577758
0.9997576310490138
0.9997586043883174
0.9997594799475679
0.9997602553623853
0.9997609287598291
0.9997614987831747
0.9997619646135412
0.9997623259879924
0.9997625832139571
0.9997627371796441
0.9997627893603989
0.9997627418207469
0.9997625972121662
0.9997623587664244
0.999762030284613
0.999761616121804
0.9997611211675403
0.9997605508221594
0.9997599109692321
0.9997592079441505
0.9997584484991987
0.9997576397651464
0.9997567892097161
0.9997559045929547
0.9997549939198498
0.9997540653902102
0.9997531273462102
0.9997521882177559
0.9997512564661898
0.9997503405267346
0.9997494487511407
0.9997485893517469
0.9997477703487928
0.9997469995237158
0.9997462843813265
0.9997456321108731
0.9997450495777975
0.9997445432582923
0.9997441192366707
0.9997437830401812
0.9997435397083375
0.9997433929187644
0
0
0.9996954257180146
0.9996946828409826
0.9996939321636917
0.9996931747055704
0.9996924119457167
0.9996916465457171
0.9996908817548359
0.999690121361569
0.9996893694458722
0.9996886302665976
0.9996879081300776
0.9996872072957439
0.9996865319006975
0.9996858859020724
0.9996852730350261
0.9996846967847716
0.99968416036972
0.9996836667347536
0.9996832185519774
0.9996828182278558
0.9996824679146159
0.9996821695251776
0.9996819247498494
0.9996817350744212
0.9996816017983063
0.9996815260526696
0.9996815088175044
0.9996815509378192
0.9996816531381376
0.9996818160356269
0.9996820401512306
0.9996823259192146
0.9996826736946249
0.9996830837591275
0.9996835563248154
0.9996840915364702
0.9996846894719482
0.9996853501411732
0.9996860734834578
0.9996868593636364
0.9996877075667718
0.9996886177919029
0.9996895896446365
0.9996906226290329
0.9996917161386194
0.9996928694469652
0.9996940816976804
0.9996953518942556
0.9996966788896343
0.9996980613759121
0.9996994978740857
0.9997009867242284
0.9997025260760348
0.999704113880099
0.9997057478798882
0.9997074256047574
0.999709144363987
0.9997109012421596
0.9997126930958873
0.9997145165521646
0.9997163680083706
0.9997182436341676
0.9997201393753163
0.9997220509596186
0.9997239739049992
0.9997259035298884
0.9997278349659027
0.99972976317293
0.9997316829565908
0.9997335889881136
0.9997354758265677
0.9997373379434181
0.9997391697492992
0.9997409656229072
0.9997427199418444
0.9997444271152544
0.9997460816180224
0.999747678026302
0.9997492110541083
0.9997506755906486
0.9997520667381103
0.9997533798495064
0.9997546105662714
0.9997557548551688
0.9997568090441802
0.999757769856925
0.9997586344452807
0.9997594004197452
0.9997600658772536
0.9997606294259994
0.9997610902070337
0.9997614479122259
0.9997617027984431
0.9997618556975935
0.9997619080224744
0.9997618617681603
0.9997617195089674
0.9997614843908176
0.999761160119145
0.9997607509422576
0.9997602616303908
0.9997596974504427
0.9997590641367168
0.9997583678577077
0.9997576151793305
0.9997568130246525
0.9997559686305649
0.9997550895014844
0.9997541833605376
0.9997532580983676
0.9997523217200497
0.999751382290375
0.9997504478782395
0.9997495265005732
0.9997486260668395
0.9997477543252025
0.9997469188115928
0.9997461268017709
0.9997453852699854
0.9997447008433433
0.9997440797623972
0.999743527830802
0.9997430503399485
0.9997426519512476
0.9997423366224831
0.9997421071910487
0
0
0.99969663187716
0.9996957723228145
0.9996949198486408
0.9996940747742934
0.9996932376111817