# vtk DataFile Version 2.0
2D-ADE data file 
ASCII
DATASET RECTILINEAR_GRID
DIMENSIONS 128 128 1 
X_COORDINATES 128 int
0 1 2 3 4 5 6 7 8 9 10 11 12 13 14 15 16 17 18 19 20 21 22 23 24 25 26 27 28 29 30 31 32 33 34 35 36 37 38 39 40 41 42 43 44 45 46 47 48 49 50 51 52 53 54 55 56 57 58 59 60 61 62 63 64 65 66 67 68 69 70 71 72 73 74 75 76 77 78 79 80 81 82 83 84 85 86 87 88 89 90 91 92 93 94 95 96 97 98 99 100 101 102 103 104 105 106 107 108 109 110 111 112 113 114 115 116 117 118 119 120 121 122 123 124 125 126 127 
Y_COORDINATES 128 int
0 1 2 3 4 5 6 7 8 9 10 11 12 13 14 15 16 17 18 19 20 21 22 23 24 25 26 27 28 29 30 31 32 33 34 35 36 37 38 39 40 41 42 43 44 45 46 47 48 49 50 51 52 53 54 55 56 57 58 59 60 61 62 63 64 65 66 67 68 69 70 71 72 73 74 75 76 77 78 79 80 81 82 83 84 85 86 87 88 89 90 91 92 93 94 95 96 97 98 99 100 101 102 103 104 105 106 107 108 109 110 111 112 113 114 115 116 117 118 119 120 121 122 123 124 125 126 127 
Z_COORDINATES 1 int
0
POINT_DATA 16384
SCALARS density double
LOOKUP_TABLE default
0
0
0
0
0
0
0
0
0
0
0
0
0
0
0
0
0
0
0
0
0
0
0
0
0
0
0
0
0
0
0
0
0
0
0
0
0
0
0
0
0
0
0
0
0
0
0
0
0
0
0
0
0
0
0
0
0
0
0
0
0
0
0
0
0
0
0
0
0
0
0
0
0
0
0
0
0
0
0
0
0
0
0
0
0
0
0
0
0
0
0
0
0
0
0
0
0
0
0
0
0
0
0
0
0
0
0
0
0
0
0
0
0
0
0
0
0
0
0
0
0
0
0
0
0
0
0
0
0
0.9996868008439583
0.9996868613497173
0.9996867696991772
0.9996864742622225
0.9996859729304767
0.9996853031900574
0.9996845008273164
0.9996835966103529
0.9996826180218958
0.9996815898659271
0.9996805338725496
0.9996794688901633
0.9996784112270847
0.999677374963025
0.9996763722030623
0.9996754133125433
0.9996745071306126
0.9996736611604312
0.9996728817373248
0.9996721741780231
0.9996715429131252
0.999670991604582
0.9996705232497474
0.9996701402734178
0.9996698446090287
0.9996696377700617
0.9996695209125336
0.9996694948893816
0.9996695602974156
0.9996697175174877
0.9996699667484235
0.9996703080352438
0.9996707412921388
0.9996712663206437
0.9996718828234176
0.9996725904140171
0.9996733886230198
0.9996742769008574
0.999675254617674
0.9996763210605356
0.9996774754282912
0.9996787168243807
0.9996800442478735
0.9996814565830121
0.99968295258753
0.9996845308800052
0.9996861899265042
0.9996879280267622
0.9996897433001488
0.9996916336716515
0.9996935968581137
0.9996956303549529
0.9996977314235852
0.9996998970797666
0.99970212408307
0.999704408927696
0.9997067478348158
0.9997091367466389
0.9997115713223772
0.9997140469362815
0.9997165586779019
0.9997191013547164
0.9997216694972569
0.9997242573668403
0.9997268589660024
0.9997294680516982
0.9997320781513284
0.9997346825816095
0.9997372744702941
0.9997398467807079
0.9997423923390584
0.9997449038644189
0.9997473740012871
0.9997497953545548
0.9997521605267353
0.999754462157223
0.9997566929633601
0.9997588457830399
0.9997609136185639
0.9997628896814295
0.9997647674377171
0.9997665406537206
0.9997682034414576
0.9997697503036682
0.9997711761779448
0.9997724764795795
0.9997736471427824
0.9997746846598857
0.9997755861182034
0.9997763492342121
0.999776972384776
0.9997774546351522
0.9997777957635725
0.9997779962822353
0.9997780574546121
0.9997779813090073
0.9997777706484052
0.9997774290566775
0.999776960901325
0.9997763713329763
0.9997756662819699
0.9997748524523946
0.9997739373140786
0.9997729290930575
0.9997718367611557
0.9997706700253606
0.9997694393177445
0.999768155786694
0.9997668312902602
0.9997654783923497
0.9997641103623254
0.9997627411782964
0.9997613855339516
0.9997600588485223
0.9997587772750435
0.9997575576992531
0.9997564177168217
0.9997553756109552
0.9997544502285544
0.9997536605885603
0.9997530248010242
0.9997525601350045
0.9997522820079531
0.9997521965593348
0.9997522516126963
0.9997523680263637
0
0
0.9996867411462934
0.999686801500804
0.9996867017128639
0.9996864206602684
0.9996859767780373
0.9996853868587903
0.9996846759757207
0.9996838697193681
0.9996829924780292
0.9996820661018393
0.9996811102049583
0.9996801422108043
0.9996791774633655
0.9996782293715153
0.9996773095989161
0.999676428245073
0.9996755940141674
0.999674814370832
0.999674095683451
0.9996734433543906
0.9996728619375738
0.9996723552442978
0.9996719264380919
0.9996715781195241
0.999671312401648
0.9996711309768926
0.9996710351759959
0.9996710260196525
0.9996711042633756
0.999671270436152
0.9996715248733049
0.9996718677440678
0.9996722990742329
0.9996728187643085
0.9996734266035163
0.9996741222800142
0.9996749053876439
0.999675775429559
0.9996767318190043
0.9996777738775751
0.9996789008312127
0.9996801118042409
0.9996814058116863
0.9996827817501646
0.9996842383875706
0.9996857743518353
0.9996873881189814
0.9996890780007194
0.9996908421318206
0.9996926784574856
0.9996945847209401
0.9996965584514685
0.9996985969531053
0.9997006972941844
0.9997028562979564
0.9997050705344553
0.9997073363138208
0.9997096496812364
0.999712006413672
0.9997144020185713
0.9997168317346539
0.9997192905349434
0.999721773132169
0.999724273986614
0.9997267873165275
0.9997293071111385
0.9997318271463448
0.9997343410030693
0.9997368420883146
0.9997393236588524
0.9997417788475311
0.9997442006920804
0.9997465821663406
0.9997489162137355
0.9997511957828641
0.9997534138649686
0.9997555635330932
0.9997576379826489
0.9997596305731357
0.9997615348706923
0.9997633446911928
0.9997650541435077
0.9997666576726316
0.9997681501022709
0.9997695266765756
0.9997707831006124
0.999771915579267
0.9997729208541926
0.9997737962385167
0.9997745396489708
0.9997751496352011
0.9997756254059948
0.9997759668522481
0.9997761745665003
0.9997762498589569
0.9997761947699298
0.9997760120787277
0.9997757053090469
0.9997752787310268
0.9997747373601398
0.9997740869532113
0.9997733340018756
0.9997724857238773
0.9997715500526433
0.9997705356256316
0.9997694517719508
0.999768308499799
0.9997671164841828
0.9997658870553513
0.9997646321881546
0.9997633644923354
0.9997620972031586
0.9997608441708549
0.9997596198455844
0.9997584392545582
0.9997573179635744
0.9997562720055373
0.9997553177206415
0.9997544715096126
0.9997537494748938
0.9997531669327473
0.9997527363664469
0.9997524643602526
0.9997523467760691
0.9997523655971868
0.9997524808628816
0
0
0.9996868334369258
0.9996869018815978
0.999686801892013
0.9996865349037687
0.9996861265337194
0.9996855890862169
0.9996849439570524
0.9996842124153014
0.9996834151141406
0.9996825711462202
0.9996816981449227
0.9996808120097291
0.9996799269258503
0.9996790554513
0.999678208641139
0.9996773961684494
0.99967662645097
0.9996759067758125
0.9996752434181194
0.9996746417515228
0.9996741063500666
0.999673641081644
0.9996732491929331
0.999672933386243
0.9996726958885375
0.9996725385131882
0.9996724627147703
0.9996724696374476
0.9996725601572506
0.9996727349187581
0.9996729943664668
0.9996733387713164
0.999673768252632
0.999674282795907
0.9996748822666749
0.9996755664208592
0.9996763349118272
0.9996771872945144
0.9996781230268346
0.9996791414687058
0.9996802418789104
0.9996814234100898
0.9996826851020941
0.999684025873955
0.9996854445147036
0.9996869396732903
0.999688509847815
0.999690153374314
0.9996918684153054
0.9996936529483299
0.9996955047546856
0.999697421408564
0.9996994002668086
0.999701438459468
0.9997035328813602
0.9997056801848154
0.9997078767737955
0.9997101187995382
0.9997124021579169
0.9997147224886389
0.9997170751764521
0.9997194553544603
0.9997218579096918
0.9997242774909878
0.9997267085193268
0.9997291452006087
0.9997315815409836
0.9997340113647034
0.9997364283345326
0.9997388259746517
0.9997411976960418
0.9997435368242246
0.9997458366292978
0.9997480903580818
0.9997502912682663
0.9997524326643142
0.9997545079349575
0.9997565105919933
0.9997584343101688
0.999760272967806
0.9997620206879304
0.9997636718795126
0.999765221278556
0.9997666639886273
0.9997679955205431
0.999769211830817
0.9997703093585748
0.9997712850605682
0.9997721364440221
0.9997728615969782
0.999773459215927
0.9997739286304442
0.9997742698246992
0.9997744834556271
0.9997745708677203
0.9997745341043353
0.9997743759155641
0.9997740997626738
0.9997737098192873
0.9997732109694044
0.9997726088025544
0.9997719096062825
0.9997711203563551
0.9997702487049615
0.9997693029673498
0.9997682921071983
0.9997672257211162
0.9997661140224771
0.9997649678247547
0.9997637985241526
0.9997626180810631
0.999761438999258
0.9997602743011091
0.999759137494293
0.9997580425235622
0.9997570036986964
0.9997560355986295
0.9997551529002731
0.9997543700822176
0.999753700886425
0.9997531580349827
0.9997527519406492
0.9997524886308424
0.9997523641296755
0.9997523831840668
0.9997525339397128
0
0
0.9996871298553461
0.9996871841458685
0.9996870693301241
0.9996868014741844
0.9996864064461178
0.999685899191663
0.9996852980144273
0.9996846200869545
0.9996838830454329
0.99968310368112
0.999682297618604
0.999681479116436
0.9996806611008933
0.999679855167686
0.9996790716319113
0.9996783196065252
0.9996776070961352
0.9996769410919036
0.9996763276654871
0.9996757720601416
0.9996752787771613
0.9996748516567013
0.999674493952386
0.9996742083997676
0.9996739972784894
0.9996738624684604
0.9996738055000878
0.9996738275989824
0.999673929725252
0.9996741126078362
0.9996743767740168
0.9996747225745463
0.9996751502045502
0.9996756597206178
0.9996762510542386
0.9996769240219793
0.9996776783325598
0.9996785135911934
0.999679429301352
0.999680424864303
0.9996814995765669
0.999682652625631
0.9996838830840703
0.9996851899023769
0.9996865719006668
0.9996880277595327
0.9996895560102239
0.9996911550243996
0.9996928230036389
0.9996945579689319
0.9996963577503482
0.9996982199770795
0.9997001420680587
0.9997021212233325
0.9997041544163852
0.9997062383875817
0.99970836963891
0.9997105444301786
0.9997127587768382
0.9997150084495544
0.9997172889756947
0.9997195956428164
0.999721923504313
0.9997242673872596
0.9997266219025903
0.9997289814576168
0.9997313402709787
0.9997336923899938
0.9997360317104577
0.9997383519988151
0.9997406469167033
0.9997429100477322
0.9997451349264624
0.9997473150693864
0.9997494440078162
0.9997515153224348
0.9997535226793669
0.9997554598674658
0.9997573208366342
0.9997590997368293
0.9997607909575279
0.999762389167274
0.9997638893530559
0.9997652868591125
0.9997665774249095
0.999767757221881
0.999768822888678
0.9997697715645426
0.999770600920577
0.9997713091885506
0.9997718951870733
0.9997723583448297
0.999772698720767
0.9997729170210071
0.9997730146124589
0.999772993532991
0.9997728564982296
0.9997726069049444
0.9997722488311866
0.9997717870332369
0.9997712269396161
0.9997705746423079
0.9997698368855119
0.9997690210521217
0.9997681351482719
0.9997671877861218
0.9997661881651385
0.9997651460518711
0.9997640717582195
0.9997629761177652
0.9997618704594656
0.9997607665769986
0.9997596766917156
0.9997586134062553
0.9997575896445928
0.9997566185626123
0.9997557134190658
0.9997548873989022
0.9997541534357136
0.9997535237765867
0.9997530094276575
0.999752619122665
0.9997523606875919
0.9997522374626014
0.9997522654805558
0.9997524498288634
0
0
0.9996876339852224
0.9996876307499549
0.9996874790288535
0.9996871952726399
0.9996867984936992
0.9996863042105948
0.999685728378667
0.999685086045589
0.9996843924272842
0.9996836620154879
0.9996829085016643
0.9996821445997319
0.9996813819672498
0.9996806311638764
0.9996799016782831
0.9996792019746217
0.9996785395522018
0.9996779210136274
0.999677352137738
0.9996768379531074
0.9996763828095465
0.9996759904465975
0.9996756640579606
0.9996754063515503
0.9996752196046529
0.9996751057143239
0.9996750662428153
0.9996751024583415
0.9996752153711251
0.9996754057650998
0.9996756742252904
0.999676021161268
0.999676446826743
0.9996769513356901
0.9996775346750923
0.9996781967146836
0.9996789372137949
0.999679755825657
0.9996806520992851
0.9996816254792745
0.9996826753036349
0.9996838007999795
0.9996850010801994
0.9996862751339214
0.9996876218208824
0.9996890398625078
0.9996905278328226
0.9996920841489666
0.9996937070614595
0.9996953946444513
0.999697144786122
0.9996989551794419
0.9997008233134653
0.999702746465344
0.9997047216932342
0.9997067458302743
0.9997088154797938
0.9997109270119106
0.9997130765616773
0.9997152600289012
0.9997174730797908
0.9997197111505224
0.9997219694528673
0.9997242429819319
0.9997265265261314
0.999728814679411
0.9997311018558012
0.9997333823062805
0.9997356501379904
0.999737899335731
0.9997401237857378
0.9997423173016112
0.9997444736523592
0.999746586592365
0.9997486498931933
0.9997506573769879
0.9997526029513333
0.9997544806452797
0.9997562846463541
0.9997580093382193
0.9997596493387669
0.9997611995382647
0.9997626551373284
0.9997640116843125
0.9997652651118768
0.9997664117723244
0.9997674484714738
0.9997683725006673
0.999769181666715
0.9997698743194026
0.9997704493764038
0.9997709063452901
0.9997712453425315
0.9997714671092491
0.9997715730237017
0.9997715651103379
0.9997714460454912
0.9997712191596315
0.9997708884363484
0.9997704585080587
0.9997699346486897
0.9997693227634081
0.9997686293756952
0.9997678616118563
0.9997670271832753
0.9997661343664449
0.9997651919809832
0.9997642093654808
0.999763196351067
0.9997621632320925
0.9997611207332792
0.9997600799718902
0.9997590524126724
0.9997580498114722
0.9997570841455047
0.9997561675254341
0.9997553120810716
0.9997545297828497
0.9997538322553727
0.9997532305304796
0.9997527348998239
0.9997523541463517
0.9997520974098159
0.9997519725851312
0.9997519950382269
0.9997521762802228
0
0
0.999688310087834
0.9996882261796186
0.9996880197256345
0.9996877022915285
0.9996872880620474
0.9996867910697632
0.9996862249470952
0.9996856028885432
0.9996849378816792
0.9996842424372687
0.9996835285281492
0.9996828073739229
0.9996820893536709
0.9996813839694573
0.9996806998427883
0.9996800447291283
0.9996794255536893
0.9996788484596697
0.9996783188625389
0.9996778415072328
0.999677420526012
0.9996770594955335
0.9996767614915696
0.9996765291408811
0.9996763646694631
0.9996762699471572
0.9996762465281978
0.9996762956879158
0.9996764184553677
0.999676615642231
0.9996768878678493
0.9996772355808118
0.9996776590770138
0.9996781585146076
0.9996787339258228
0.9996793852260619
0.9996801122202862
0.9996809146070732
0.9996817919803908
0.9996827438294449
0.9996837695366672
0.999684868374175
0.9996860394987852
0.9996872819458945
0.9996885946223216
0.9996899762984011
0.9996914255994332
0.9996929409967646
0.9996945207986154
0.9996961631409005
0.9996978659781746
0.9996996270749336
0.9997014439974025
0.999703314106023
0.9997052345487777
0.9997072022555484
0.9997092139336378
0.9997112660646298
0.9997133549027293
0.9997154764747065
0.9997176265815972
0.9997198008022531
0.9997219944988697
0.9997242028245557
0.9997264207330548
0.9997286429906416
0.9997308641902708
0.99973307876796
0.9997352810214548
0.9997374651310977
0.9997396251829165
0.9997417551937996
0.9997438491387225
0.9997459009798478
0.9997479046974121
0.9997498543221576
0.9997517439691926
0.999753567872973
0.9997553204232512
0.9997569962016428
0.9997585900186108
0.9997600969504964
0.9997615123763608
0.9997628320142475
0.9997640519566221
0.9997651687045864
0.9997661792006374
0.9997670808595733
0.999767871597345
0.9997685498574819
0.9997691146349426
0.9997695654970568
0.9997699026014782
0.9997701267108735
0.9997702392043472
0.9997702420854023
0.9997701379865171
0.9997699301702208
0.9997696225268328
0.9997692195688234
0.9997687264220305
0.9997681488137471
0.9997674930579556
0.9997667660377406
0.9997659751851383
0.9997651284583945
0.9997642343167794
0.9997633016927483
0.9997623399613381
0.9997613589061691
0.9997603686813182
0.9997593797677978
0.9997584029235613
0.9997574491241414
0.9997565294898877
0.9997556551953699
0.9997548373702525
0.9997540869751206
0.9997534146539533
0.9997528305234541
0.9997523442639026
0.9997519649232981
0.9997517020825849
0.9997515655332105
0.9997515679874073
0.9997517199717376
0
0
0.999689124222601
0.9996889467685727
0.9996886711360576
0.9996883051519225
0.9996878600579336
0.9996873470097551
0.9996867773184225
0.9996861623009003
0.9996855130471889
0.9996848403436203
0.9996841545494876
0.9996834654583556
0.999682782224705
0.9996821133062972
0.9996814664374286
0.9996808486294562
0.9996802661899347
0.9996797247528927
0.9996792293170614
0.9996787842895113
0.9996783935315956
0.9996780604056016
0.9996777878204419
0.9996775782758431
0.9996774339039831
0.9996773565084898
0.9996773476001647
0.999677408429624
0.9996775400164549
0.9996777431752123
0.9996780185380046
0.999678366574055
0.9996787876060756
0.9996792818238688
0.9996798492950532
0.999680489973324
0.9996812037041967
0.9996819902286251
0.9996828491844764
0.9996837801062406
0.9996847824229761
0.9996858554548509
0.9996869984083033
0.9996882103701591
0.9996894903007466
0.9996908370263258
0.9996922492308875
0.9996937254476215
0.9996952640501211
0.9996968632436023
0.9996985210562215
0.9997002353307456
0.9997020037166718
0.999703823663028
0.9997056924119633
0.9997076069933356
0.9997095642204096
0.9997115606868487
0.9997135927651202
0.9997156566064616
0.9997177481425288
0.9997198630888426
0.9997219969501433
0.9997241450277318
0.999726302428897
0.9997284640784576
0.9997306247324969
0.999732778994281
0.9997349213323989
0.999737046101059
0.9997391475625584
0.9997412199117957
0.9997432573027987
0.999745253877086
0.9997472037937892
0.9997491012612949
0.9997509405702899
0.999752716127914
0.9997544224928661
0.999756054411113
0.9997576068520198
0.9997590750445087
0.9997604545130401
0.9997617411130046
0.9997629310652989
0.9997640209896718
0.9997650079366228
0.9997658894174366
0.9997666634321711
0.999767328495204
0.9997678836582009
0.9997683285301526
0.9997686632944056
0.9997688887223954
0.9997690061840784
0.9997690176548422
0.9997689257189747
0.9997687335695447
0.9997684450048521
0.999768064421376
0.9997675968034411
0.9997670477095757
0.9997664232558303
0.9997657300960295
0.9997649753992123
0.9997641668241825
0.9997633124913147
0.9997624209513737
0.9997615011512577
0.9997605623961606
0.999759614307685
0.9997586667766953
0.9997577299098367
0.9997568139686638
0.9997559293010357
0.9997550862596681
0.9997542951094114
0.999753565927866
0.9997529085301775
0.999752332359635
0.9997518465677088
0.9997514600721846
0.9997511820009035
0.9997510217323191
0.9997509904845048
0.9997510963548566
0
0
0.9996900474397761
0.9996897682959649
0.9996894130348954
0.9996889875144851
0.9996885001437993
0.9996879594748483
0.9996873747821636
0.9996867554720996
0.9996861108941361
0.9996854502343583
0.9996847823720098
0.9996841157818419
0.999683458449406
0.9996828178084467
0.9996822007090927
0.9996816134068442
0.9996810615665963
0.9996805502795921
0.9996800840895713
0.9996796670250198
0.9996793026346518
0.9996789940248799
0.9996787438974368
0.9996785545865242
0.9996784280942806
0.9996783661244563
0.9996783701135029
0.9996784412592516
0.9996785805466328
0.9996787887707544
0.9996790665569817
0.999679414378393
0.9996798325703635
0.9996803213426979
0.9996808807891215
0.9996815108945658
0.9996822115401094
0.9996829825060017
0.9996838234726729
0.9996847340201376
0.999685713625727
0.9996867616605443
0.9996878773845959
0.9996890599409739
0.9996903083490735
0.9996916214971832
0.9996929981344651
0.9996944368626391
0.9996959361274022
0.9996974942098751
0.999699109218136
0.9997007790790968
0.9997025015308044
0.9997042741154039
0.999706094172848
0.999707958835581
0.9997098650242777
0.9997118094448476
0.9997137885867909
0.99971579872308
0.9997178359116643
0.999719895998733
0.9997219746238248
0.9997240672268899
0.9997261690573783
0.9997282751854083
0.9997303805150808
0.999732479799941
0.9997345676606201
0.9997366386046153
0.9997386870481989
0.9997407073403617
0.9997426937887393
0.9997446406873673
0.99974654234618
0.9997483931220192
0.9997501874510468
0.9997519198822605
0.9997535851119599
0.999755178018823
0.9997566936994025
0.9997581275036571
0.9997594750703076
0.9997607323616025
0.9997618956972738
0.9997629617872549
0.9997639277629458
0.9997647912066038
0.999765550178675
0.9997662032426553
0.9997667494873501
0.9997671885461619
0.9997675206133312
0.9997677464568171
0.9997678674278193
0.9997678854666947
0.9997678031053472
0.9997676234659206
0.9997673502559522
0.9997669877598752
0.9997665408271008
0.9997660148566164
0.9997654157783616
0.99976475003133
0.9997640245386575
0.9997632466795846
0.9997624242584848
0.9997615654707253
0.99976067886536
0.9997597733041762
0.9997588579169028
0.9997579420519394
0.9997570352219973
0.9997561470433246
0.9997552871693299
0.9997544652194529
0.9997536907043897
0.9997529729448872
0.9997523210183598
0.999751743722738
0.9997512496149341
0.9997508470977129
0.9997505446235003
0.9997503503448468
0.9997502738248509
0.9997503217067053
0
0
0.9996910538640834
0.9996906675573092
0.9996902256358834
0.9996897323877115
0.9996891935921185
0.9996886158618165
0.9996880065658085
0.999687373320871
0.9996867238866158
0.999686065973715
0.9996854071074183
0.9996847545309587
0.9996841151200664
0.9996834953246376
0.9996829011306033
0.9996823380392574
0.9996818110622131
0.9996813247291086
0.9996808831038236
0.9996804898072678
0.9996801480442286
0.9996798606330294
0.9996796300360465
0.9996794583905365
0.9996793475384843
0.9996792990553514
0.9996793142768129
0.9996793943236466
0.9996795401241267
0.999679752434243
0.999680031855271
0.9996803788491033
0.9996807937509827
0.9996812767800861
0.9996818280476878
0.9996824475633551
0.9996831352389682
0.9996838908910183
0.9996847142410112
0.9996856049144242
0.9996865624380786
0.9996875862363541
0.9996886756261414
0.9996898298109322
0.9996910478739821
0.99969232877091
0.999693671321698
0.9996950742024406
0.9996965359368197
0.9996980548876333
0.9996996292483857
0.9997012570352339
0.9997029360793164
0.999704664019746
0.9997064382973021
0.9997082561490834
0.9997101146041634
0.9997120104804952
0.9997139403831085
0.9997159007038132
0.9997178876224716
0.9997198971100005
0.9997219249331754
0.9997239666613614
0.9997260176752248
0.99972807317751
0.9997301282059223
0.9997321776481451
0.9997342162590148
0.9997362386798211
0.9997382394597244
0.9997402130792028
0.9997421539754837
0.9997440565697998
0.9997459152963969
0.9997477246330654
0.9997494791330751
0.9997511734582338
0.9997528024129083
0.9997543609786652
0.9997558443493466
0.999757247966192
0.9997585675527905
0.9997597991494492
0.9997609391467501
0.999761984317863
0.9997629318493984
0.9997637793703599
0.9997645249790156
0.9997651672672627
0.9997657053423449
0.999766138845544
0.9997664679677604
0.999766693461657
0.9997668166503582
0.999766839432444
0.9997667642833122
0.9997665942527165
0.9997663329586352
0.9997659845773427
0.9997655538299108
0.9997650459650534
0.9997644667385847
0.9997638223894312
0.9997631196124586
0.9997623655280247
0.9997615676484722
0.9997607338413764
0.9997598722896768
0.9997589914483518
0.9997580999975797
0.9997572067919526
0.9997563208059445
0.9997554510752683
0.9997546066341706
0.9997537964497378
0.9997530293587901
0.999752314007276
0.9997516588045452
0.99975107190265
0.99975056120375
0.9997501343548493
0.9997497989580673
0.9997495620692127
0.9997494312708696
0.9997494120628075
0
0
0.9996921199602403
0.999691623598365
0.9996910904486747
0.999690523356237
0.9996899261154476
0.999689303737052
0.999688661862106
0.9996880065591585
0.9996873441382538
0.9996866809545947
0.999686023286816
0.9996853772326308
0.9996847486266134
0.9996841429816579
0.9996835654467184
0.99968302078193
0.999682513347584
0.9996820471044155
0.9996816256222307
0.9996812520954559
0.999680929362958
0.9996806599310946
0.9996804459981147
0.9996802894794724
0.9996801920326522
0.99968015508145
0.9996801798386858
0.9996802673275559
0.9996804184008627
0.9996806337584828
0.999680913962487
0.9996812594503629
0.9996816705458805
0.9996821474680956
0.999682690338114
0.999683299184126
0.9996839739444097
0.9996847144687999
0.9996855205183737
0.9996863917638407
0.9996873277824273
0.9996883280537207
0.9996893919543043
0.9996905187516251
0.9996917075969545
0.9996929575178595
0.9996942674100794
0.9996956360291983
0.9996970619820335
0.9996985437181076
0.9997000795211556
0.9997016675010034
0.9997033055857949
0.9997049915148831
0.9997067228323789
0.9997084968816534
0.9997103108007993
0.9997121615193247
0.9997140457560956
0.9997159600187692
0.9997179006047507
0.9997198636038689
0.9997218449028099
0.9997238401914729
0.9997258449712693
0.9997278545654866
0.999729864131734
0.9997318686765266
0.9997338630720117
0.9997358420748351
0.9997378003471199
0.9997397324794952
0.9997416330161137
0.9997434964815227
0.9997453174092977
0.9997470903722311
0.9997488100139443
0.9997504710816516
0.9997520684599054
0.999753597204997
0.9997550525798014
0.9997564300886892
0.9997577255122876
0.9997589349416564
0.9997600548116581
0.999761081933076
0.9997620135232541
0.9997628472348149
0.999763581182257
0.9997642139660007
0.9997647446937293
0.9997651729986369
0.9997654990544803
0.9997657235871061
0.999765847882428
0.9997658737905816
0.9997658037263276
0.9997656406654879
0.9997653881375774
0.9997650502144803
0.9997646314954064
0.9997641370880279
0.9997635725860861
0.99976294404339
0.9997622579445157
0.9997615211721209
0.9997607409711591
0.9997599249098527
0.9997590808376458
0.9997582168399615
0.9997573411899572
0.9997564622970134
0.9997555886522406
0.9997547287713262
0.9997538911357478
0.9997530841326675
0.9997523159971078
0.9997515947602643
0.9997509282066773
0.9997503238433672
0.9997497888979724
0.9997493302444638
0.9997489545149604
0.9997486677958782
0.9997484759488997
0.9997483833169316
0
0
0.9996932248407423
0.9996926173319347
0.9996919901044766
0.9996913448454146
0.999690683900354
0.9996900108670147
0.9996893299357392
0.9996886458315706
0.9996879635538595
0.9996872882331611
0.9996866250057822
0.9996859789096122
0.9996853548057495
0.9996847573195928
0.9996841907978673
0.9996836592813441
0.9996831664894246
0.9996827158154262
0.9996823103298556
0.9996819527903331
0.9996816456557481
0.9996813911039079
0.9996811910508238
0.9996810471712809
0.999680960919263
0.9996809335482412
0.9996809661302495
0.9996810595739785
0.9996812146410557
0.9996814319609036
0.9996817120435093
0.9996820552905966
0.9996824620046451
0.9996829323963005
0.9996834665897179
0.9996840646263806
0.999684726467023
0.9996854519921927
0.9996862410011281
0.9996870932094822
0.9996880082456142
0.9996889856459514
0.9996900248491911
0.9996911251898202
0.9996922858907553
0.9996935060555571
0.9996947846600559
0.9996961205438185
0.9996975124013225
0.9996989587732427
0.9997004580377475
0.9997020084021857
0.9997036078950867
0.9997052543588318
0.9997069454429437
0.9997086785983259
0.999710451072425
0.9997122599056127
0.9997141019287834
0.9997159737624304
0.999717871817212
0.9997197922962324
0.999721731199052
0.9997236843276187
0.9997256472941242
0.9997276155309343
0.9997295843025881
0.9997315487199567
0.9997335037565417
0.9997354442669442
0.9997373650074537
0.9997392606587251
0.9997411258504628
0.9997429551880033
0.999744743280684
0.9997464847718148
0.9997481743701018
0.9997498068822689
0.9997513772466916
0.9997528805677227
0.9997543121504886
0.9997556675357837
0.9997569425348228
0.9997581332634282
0.999759236175407
0.9997602480946707
0.9997611662458564
0.9997619882829986
0.9997627123160339
0.9997633369347037
0.999763861229683
0.9997642848105297
0.9997646078203545
0.99976483094685
0.9997649554296603
0.9997649830637944
0.9997649161991523
0.9997647577359388
0.9997645111161211
0.9997641803107761
0.9997637698035657
0.9997632845702383
0.9997627300544648
0.9997621121399404
0.9997614371190919
0.9997607116583372
0.9997599427602387
0.999759137722482
0.9997583040940149
0.9997574496282345
0.9997565822336103
0.99975570992174
0.9997548407533019
0.999753982782094
0.9997531439984542
0.9997523322730094
0.9997515553023046
0.9997508205587182
0.9997501352469437
0.9997495062584023
0.9997489401504213
0.9997484430766813
0.9997480207571962
0.9997476783401491
0.9997474203712116
0.9997472501640048
0
0
0.9996943500186155
0.9996936314372983
0.9996929085808655
0.9996921822796234
0.9996914537507032
0.9996907254080287
0.9996900002450725
0.9996892818026663
0.9996885739216808
0.9996878806344339
0.9996872060342774
0.99968655418272
0.999685929034281
0.9996853343790818
0.9996847738005258
0.9996842506468077
0.9996837680131602
0.9996833287340449
0.9996829353825418
0.9996825902760521
0.9996822954860933
0.999682052851653
0.9996818639942393
0.9996817303344518
0.9996816531086116
0.9996816333855632
0.9996816720824914
0.9996817699800696
0.9996819277360236
0.9996821458975568
0.9996824249118997
0.9996827651355096
0.9996831668412983
0.9996836302244709
0.999684155406441
0.9996847424374135
0.999685391297184
0.99968610189474
0.9996868740662612
0.9996877075721016
0.9996886020923973
0.9996895572218575
0.999690572463429
0.9996916472213666
0.9996927807934415
0.9996939723627891
0.9996952209891679
0.9996965256001062
0.9996978849817457
0.9996992977698257
0.9997007624406528
0.9997022773024808
0.9997038404871725
0.999705449942538
0.9997071034252589
0.9997087984947653
0.9997105325079927
0.9997123026153677
0.9997141057579663
0.9997159386661593
0.9997177978597123
0.999719679649611
0.9997215801415922
0.9997234952416089
0.9997254206632081
0.9997273519370108
0.9997292844222503
0.9997312133205131
0.9997331336916245
0.9997350404717512
0.9997369284936435
0.9997387925090202
0.9997406272129903
0.9997424272704336
0.9997441873442029
0.9997459021249928
0.9997475663626985
0.9997491748990363
0.999750722701209
0.9997522048963169
0.999753616806272
0.9997549539828483
0.9997562122426059
0.9997573877012719
0.9997584768073096
0.9997594763742274
0.9997603836113679
0.9997611961527114
0.9997619120834698
0.9997625299640124
0.9997630488509465
0.9997634683149252
0.9997637884550732
0.9997640099096523
0.9997641338629455
0.9997641620480378
0.9997640967455694
0.9997639407782151
0.9997636975010613
0.9997633707877037
0.9997629650123295
0.9997624850276782
0.9997619361392097
0.999761324075428
0.9997606549547465
0.9997599352488622
0.9997591717430555
0.9997583714934005
0.9997575417813247
0.9997566900655138
0.9997558239316412
0.9997549510400046
0.9997540790717625
0.9997532156740071
0.9997523684045956
0.9997515446776032
0.9997507517104496
0.9997499964727486
0.9997492856398027
0.9997486255416593
0.9997480221142421
0.9997474808454953
0.999747006681682
0.9997466039324162
0.999746276118557
0.9997460257576876
0
0
0.9996954790329272
0.9996946502146694
0.9996938311504979
0.9996930220212985
0.999692223145557
0.999691435980293
0.9996906625091206