# vtk DataFile Version 2.0
2D-ADE data file 
ASCII
DATASET RECTILINEAR_GRID
DIMENSIONS 128 128 1 
X_COORDINATES 128 int
0 1 2 3 4 5 6 7 8 9 10 11 12 13 14 15 16 17 18 19 20 21 22 23 24 25 26 27 28 29 30 31 32 33 34 35 36 37 38 39 40 41 42 43 44 45 46 47 48 49 50 51 52 53 54 55 56 57 58 59 60 61 62 63 64 65 66 67 68 69 70 71 72 73 74 75 76 77 78 79 80 81 82 83 84 85 86 87 88 89 90 91 92 93 94 95 96 97 98 99 100 101 102 103 104 105 106 107 108 109 110 111 112 113 114 115 116 117 118 119 120 121 122 123 124 125 126 127 
Y_COORDINATES 128 int
0 1 2 3 4 5 6 7 8 9 10 11 12 13 14 15 16 17 18 19 20 21 22 23 24 25 26 27 28 29 30 31 32 33 34 35 36 37 38 39 40 41 42 43 44 45 46 47 48 49 50 51 52 53 54 55 56 57 58 59 60 61 62 63 64 65 66 67 68 69 70 71 72 73 74 75 76 77 78 79 80 81 82 83 84 85 86 87 88 89 90 91 92 93 94 95 96 97 98 99 100 101 102 103 104 105 106 107 108 109 110 111 112 113 114 115 116 117 118 119 120 121 122 123 124 125 126 127 
Z_COORDINATES 1 int
0
POINT_DATA 16384
SCALARS density double
LOOKUP_TABLE default
0
0
0
0
0
0
0
0
0
0
0
0
0
0
0
0
0
0
0
0
0
0
0
0
0
0
0
0
0
0
0
0
0
0
0
0
0
0
0
0
0
0
0
0
0
0
0
0
0
0
0
0
0
0
0
0
0
0
0
0
0
0
0
0
0
0
0
0
0
0
0
0
0
0
0
0
0
0
0
0
0
0
0
0
0
0
0
0
0
0
0
0
0
0
0
0
0
0
0
0
0
0
0
0
0
0
0
0
0
0
0
0
0
0
0
0
0
0
0
0
0
0
0
0
0
0
0
0
0
0.9996890982511559
0.9996891739283726
0.9996890865439946
0.9996887738513486
0.9996882274791457
0.9996874867820367
0.9996865904863258
0.9996855723249786
0.999684462667866
0.9996832891410822
0.9996820760850937
0.9996808447037218
0.9996796134036211
0.9996783981186922
0.9996772125780936
0.9996760685592179
0.999674976121237
0.9996739438158168
0.9996729788752955
0.9996720873811594
0.9996712744146894
0.999670544191398
0.9996699001807067
0.9996693452122141
0.9996688815697218
0.9996685110740519
0.9996682351555669
0.9996680549172198
0.9996679711888695
0.9996679845735469
0.9996680954862937
0.9996683041861547
0.9996686108018669
0.9996690153517646
0.999669517758378
0.999670117858197
0.9996708154070378
0.9996716100814457
0.999672501476533
0.9996734891006557
0.999674572367313
0.9996757505846257
0.9996770229427664
0.9996783884996842
0.9996798461654555
0.9996813946855976
0.9996830326236592
0.9996847583434001
0.9996865699908642
0.9996884654766315
0.9996904424585522
0.9996924983252226
0.9996946301804863
0.9996968348292168
0.9996991087646349
0.9997014481574048
0.9997038488467401
0.9997063063337406
0.9997088157771667
0.9997113719918447
0.9997139694498798
0.9997166022848363
0.9997192642990199
0.9997219489739849
0.9997246494843537
0.9997273587150178
0.9997300692817617
0.9997327735553105
0.9997354636887851
0.999738131648504
0.9997407692480381
0.9997433681853958
0.999745920083165
0.9997484165314146
0.9997508491331164
0.9997532095518072
0.9997554895611888
0.9997576810963091
0.9997597763059729
0.9997617676059539
0.9997636477326115
0.9997654097964497
0.999767047335177
0.9997685543657946
0.9997699254352519
0.9997711556692105
0.9997722408184666
0.9997731773026034
0.9997739622504735
0.9997745935371434
0.9997750698169683
0.9997753905525287
0.9997755560391994
0.999775567425192
0.9997754267269815
0.999775136840091
0.9997747015453002
0.9997741255104093
0.9997734142877817
0.9997725743079733
0.99977161286984
0.999770538127592
0.999769359075357
0.9997680855298723
0.9997667281119984
0.9997652982278045
0.9997638080499859
0.9997622705003856
0.9997606992343421
0.9997591086274534
0.999757513765037
0.9997559304341475
0.9997543751173238
0.9997528649866793
0.9997514178914989
0.9997500523293719
0.9997487873850737
0.9997476426580364
0.9997466380507585
0.9997457932335782
0.9997451263285747
0.9997446538993862
0.9997443893288841
0.9997443337040552
0.9997444200809973
0.9997445567631748
0
0
0.9996890230703255
0.9996890986864527
0.9996889987004822
0.9996886968003448
0.99968820983368
0.9996875546602867
0.9996867578800716
0.9996858472802773
0.9996848496804168
0.9996837893010073
0.9996826880075045
0.9996815653122632
0.9996804384617684
0.999679322571358
0.9996782308199427
0.999677174641529
0.9996761639075122
0.9996752070974286
0.9996743114580281
0.9996734831492795
0.999672727377307
0.9996720485148132
0.9996714502096526
0.9996709354822803
0.9996705068127419
0.99967016621792
0.9996699153196628
0.9996697554044307
0.9996696874750248
0.9996697122949684
0.9996698304260342
0.9996700422594447
0.9996703480411897
0.9996707478919361
0.9996712418219501
0.9996718297414601
0.9996725114668563
0.9996732867231302
0.9996741551429165
0.9996751162625198
0.9996761695152739
0.9996773142225818
0.9996785495829765
0.9996798746595252
0.9996812883659039
0.9996827894514443
0.9996843764854659
0.9996860478411823
0.9996878016794735
0.9996896359328044
0.9996915482895639
0.9996935361790883
0.9996955967576331
0.9996977268955366
0.999699923165826
0.9997021818344836
0.9997044988526176
0.9997068698507212
0.9997092901352443
0.9997117546876361
0.9997142581660544
0.9997167949098588
0.9997193589470559
0.9997219440047732
0.9997245435228754
0.9997271506707621
0.9997297583674036
0.9997323593046016
0.9997349459734659
0.9997375106940338
0.9997400456479608
0.9997425429141417
0.9997449945071109
0.999747392418025
0.9997497286580004
0.9997519953035351
0.9997541845437299
0.9997562887289659
0.9997583004207057
0.9997602124420053
0.9997620179283722
0.9997637103785144
0.9997652837045798
0.9997667322814215
0.9997680509944691
0.9997692352857609
0.999770281197721
0.9997711854142669
0.999771945298888
0.9997725589293263
0.9997730251285704
0.9997733434918905
0.9997735144097103
0.9997735390861576
0.9997734195532105
0.9997731586804056
0.9997727601801676
0.9997722286088598
0.9997715693637682
0.9997707886762602
0.9997698936014706
0.9997688920049012
0.9997677925463982
0.9997666046620108
0.9997653385442663
0.9997640051214112
0.9997626160361378
0.9997611836242394
0.9997597208935012
0.9997582415028599
0.9997567597415137
0.9997552905069004
0.9997538492792366
0.9997524520882421
0.9997511154672445
0.9997498563844891
0.9997486921291742
0.9997476400903917
0.9997467174282416
0.999745940611003
0.9997453247321919
0.9997448811104576
0.9997446136434677
0.9997445140665858
0.9997445559867902
0.9997446922734429
0
0
0.9996891108694453
0.9996891991252316
0.999689098902258
0.9996888103624764
0.999688360498055
0.9996877615443236
0.9996870362221595
0.9996862076028723
0.9996852983342148
0.9996843295042503
0.9996833207061369
0.9996822896902248
0.9996812523505318
0.9996802227984504
0.9996792134861118
0.9996782353310383
0.9996772978508554
0.9996764092987379
0.9996755767942921
0.9996748064467323
0.9996741034696209
0.9996734722867675
0.9996729166290946
0.9996724396226239
0.9996720438678027
0.999671731510575
0.9996715043055399
0.9996713636716494
0.9996713107408273
0.9996713463999618
0.9996714713266572
0.999671686019177
0.9996719908209547
0.9996723859400873
0.99967287146417
0.9996734473708659
0.9996741135345543
0.9996748697294354
0.9996757156294154
0.9996766508051316
0.9996776747184316
0.9996787867146399
0.9996799860129237
0.9996812716950673
0.9996826426929531
0.9996840977750489
0.999685635532183
0.9996872543628943
0.9996889524586264
0.9996907277890363
0.9996925780876795
0.9996945008383232
0.999696493262141
0.9996985523060195
0.9997006746322195
0.9997028566096022
0.9997050943066468
0.9997073834864479
0.9997097196038959
0.9997120978052007
0.9997145129299372
0.9997169595157431
0.9997194318058022
0.9997219237592131
0.9997244290643369
0.9997269411551637
0.9997294532307565
0.9997319582777491
0.9997344490959037
0.9997369183266417
0.9997393584844899
0.9997417619912977
0.9997441212130925
0.9997464284993646
0.9997486762245831
0.9997508568316673
0.9997529628771528
0.999754987077711
0.9997569223577142
0.9997587618974438
0.9997604991815922
0.9997621280476328
0.9997636427336557
0.999765037925247
0.9997663088009967
0.9997674510762085
0.9997684610444254
0.999769335616364
0.9997700723559226
0.9997706695129002
0.9997711260521644
0.9997714416789882
0.9997716168603782
0.9997716528422186
0.9997715516621668
0.9997713161582416
0.9997709499731604
0.9997704575545008
0.9997698441508686
0.9997691158042722
0.9997682793390068
0.999767342347359
0.9997663131725261
0.9997652008891246
0.9997640152817204
0.9997627668217336
0.9997614666430646
0.9997601265166185
0.9997587588237429
0.9997573765281978
0.9997559931458423
0.9997546227105217
0.9997532797337119
0.9997519791522719
0.9997507362564079
0.999749566587551
0.999748485803992
0.9997475094545909
0.9997466526012024
0.9997459291828653
0.999745351638345
0.999744929410684
0.9997446663297836
0.9997445551322124
0.9997445975984218
0.9997447784472815
0
0
0.9996894245897375
0.9996895022536628
0.9996893876727179
0.999689098048979
0.9996886619778222
0.9996880952682138
0.9996874176785818
0.9996866478542928
0.9996858051207727
0.9996849080104245
0.9996839738617144
0.9996830185608081
0.9996820565570833
0.9996811008483181
0.9996801630232433
0.999679253339704
0.9996783808234188
0.9996775533703531
0.9996767778498586
0.9996760602059115
0.9996754055541701
0.999674818273358
0.9996743020901772
0.9996738601575105
0.9996734951257158
0.9996732092071241
0.9996730042338113
0.9996728817089332
0.9996728428518186
0.99967288863717
0.99967301982863
0.9996732370070855
0.9996735405939787
0.9996739308700148
0.9996744079895374
0.9996749719909481
0.999675622803451
0.9996763602504803
0.9996771840500905
0.9996780938126528
0.999679089036131
0.9996801690992636
0.9996813332529249
0.9996825806099681
0.9996839101338215
0.9996853206261272
0.99968681071368
0.999688378834945
0.9996900232264067
0.9996917419090092
0.999693532674932
0.9996953930749481
0.9996973204066014
0.9996993117034297
0.9997013637254593
0.9997034729511808
0.9997056355712184
0.9997078474838758
0.9997101042927559
0.9997124013066082
0.9997147335415764
0.9997170957259705
0.9997194823076979
0.9997218874644438
0.9997243051166976
0.9997267289436634
0.9997291524021042
0.9997315687481144
0.9997339710618077
0.9997363522748535
0.999738705200797
0.9997410225680295
0.9997432970552796
0.9997455213294186
0.999747688085405
0.999749790088082
0.9997518202155931
0.9997537715040765
0.9997556371933443
0.9997574107731608
0.9997590860297796
0.9997606570923212
0.9997621184786224
0.9997634651401232
0.9997646925054131
0.9997657965220067
0.9997667736959884
0.9997676211291213
0.9997683365530988
0.9997689183605918
0.9997693656328267
0.9997696781634232
0.9997698564783245
0.9997699018516245
0.9997698163172466
0.9997696026763799
0.9997692645007391
0.9997688061316825
0.9997682326753526
0.9997675499939985
0.9997667646937406
0.9997658841090195
0.9997649162840663
0.9997638699516697
0.9997627545095708
0.9997615799947123
0.9997603570555358
0.9997590969223173
0.9997578113753687
0.9997565127105617
0.9997552137011095
0.999753927553541
0.9997526678552364
0.9997514485099666
0.9997502836559193
0.9997491875480782
0.9997481743939404
0.999747258135872
0.9997464522244579
0.9997457690983257
0.9997452195311587
0.9997448115531683
0.9997445519213629
0.9997444422833172
0.9997444987256039
0.999744725065265
0
0
0.9996899742739699
0.9996899923073314
0.999689838834349
0.9996895322286791
0.9996890939924152
0.9996885410729875
0.9996878909714262
0.9996871601444695
0.9996863653362146
0.999685522562432
0.9996846470125856
0.9996837528381644
0.9996828530521848
0.9996819594696887
0.9996810827281812
0.9996802323327165
0.9996794167179537
0.999678643321232
0.9996779186625604
0.9996772484262458
0.9996766375411926
0.9996760902583115
0.9996756102238306
0.9996752005478432
0.9996748638675262
0.9996746024049273
0.9996744180191551
0.9996743122531075
0.9996742863747667
0.9996743414133298
0.9996744781902843
0.9996746973457664
0.999674999360366
0.999675384572733
0.999675853193185
0.999676405313664
0.9996770409142699
0.9996777598667067
0.9996785619348768
0.9996794467729495
0.9996804139211433
0.9996814627995326
0.9996825927001209
0.9996838027774765
0.9996850920381679
0.9996864593292846
0.9996879033262781
0.9996894225203913
0.9996910152059086
0.9996926794674819
0.9996944131677584
0.9996962139355521
0.9996980791547809
0.9997000059543861
0.9997019911994561
0.9997040314837549
0.9997061231238551
0.9997082621550608
0.9997104443293057
0.999712665115179
0.9997149197002466
0.9997172029957867
0.9997195096440782
0.9997218340283244
0.9997241702853084
0.9997265123208229
0.9997288538279262
0.9997311883080074
0.9997335090946718
0.9997358093803629
0.9997380822456767
0.999740320691227
0.9997425176719452
0.9997446661336199
0.9997467590514899
0.9997487894706345
0.9997507505479192
0.9997526355951714
0.9997544381233037
0.9997561518870013
0.9997577709296513
0.9997592896280988
0.9997607027368753
0.9997620054314651
0.9997631933502553
0.9997642626347351
0.9997652099675942
0.9997660326083292
0.9997667284260308
0.9997672959290161
0.9997677342910475
0.9997680433738529
0.9997682237457951
0.9997682766964799
0.9997682042472523
0.9997680091574799
0.999767694926668
0.9997672657924236
0.9997667267244122
0.9997660834144235
0.9997653422627809
0.9997645103612799
0.9997635954729401
0.9997626060087791
0.9997615510018636
0.9997604400787732
0.9997592834285892
0.9997580917692931
0.9997568763112872
0.9997556487173845
0.9997544210583268
0.9997532057621633
0.9997520155546998
0.9997508633864631
0.9997497623438588
0.9997487255389765
0.9997477659680419
0.9997468962985555
0.9997461286524556
0.9997454743272182
0.9997449436217656
0.9997445450079822
0.9997442873609141
0.9997441781080387
0.9997442336995778
0.9997444660909321
0
0
0.9996907226580438
0.9996906539673223
0.9996904414000943
0.9996900982191839
0.9996896406908587
0.9996890844685805
0.9996884447201038
0.9996877360255899
0.9996869727597703
0.9996861687848564
0.9996853373997852
0.9996844910947447
0.9996836414471664
0.9996827990741959
0.9996819736237846
0.9996811737864957
0.9996804073323825
0.9996796811629072
0.9996790013707544
0.9996783733035763
0.9996778016291779
0.9996772904001615
0.9996768431163232
0.9996764627839168
0.999676151971006
0.9996759128586167
0.9996757472873158
0.9996756567992436
0.9996756426754686
0.9996757059688517
0.9996758475324335
0.9996760680436108
0.9996763680241949
0.9996767478566612
0.9996772077967288
0.9996777479825909
0.9996783684409685
0.9996790690903047
0.9996798497412969
0.9996807100950686
0.9996816497391905
0.99968266814185
0.9996837646443721
0.9996849384523916
0.9996861886258714
0.9996875140682567
0.9996889135149696
0.9996903855215085
0.9996919284513626
0.9996935404639916
0.9996952195030818
0.9996969632853099
0.9996987692898249
0.9997006347486661
0.9997025566383173
0.9997045316726005
0.9997065562971005
0.9997086266853005
0.9997107387366095
0.9997128880764292
0.999715070058431
0.999717279769153
0.9997195120350609
0.9997217614321502
0.9997240222981925
0.9997262887476634
0.9997285546894121
0.9997308138470569
0.9997330597821158
0.9997352859198042
0.9997374855774482
0.9997396519953857
0.9997417783702413
0.9997438578903834
0.9997458837733932
0.999747849305282
0.9997497478812347
0.9997515730475508
0.9997533185445148
0.9997549783498132
0.999756546722184
0.9997580182448913
0.9997593878686717
0.9997606509537298
0.9997618033104247
0.9997628412382205
0.999763761562561
0.999764561669259
0.9997652395361003
0.9997657937613039
0.9997662235885889
0.9997665289285621
0.9997667103762594
0.9997667692246329
0.9997667074739179
0.9997665278367703
0.9997662337392059
0.9997658293173326
0.9997653194100099
0.9997647095475142
0.9997640059364243
0.999763215440868
0.9997623455603827
0.9997614044045454
0.9997604006645933
0.9997593435821011
0.9997582429148001
0.9997571088993785
0.999755952211034
0.9997547839191164
0.9997536154379376
0.9997524584713802
0.9997513249500131
0.9997502269574883
0.9997491766417981
0.9997481861072705
0.9997472672983077
0.9997464318556596
0.999745690950438
0.9997450550594105
0.9997445341022043
0.9997441372331218
0.9997438743048842
0.9997437554479418
0.9997437946519334
0.9997440035011487
0
0
0.9996916332343188
0.9996914623040214
0.9996911739608711
0.9996907773607762
0.9996902855975948
0.9996897113265707
0.9996890672794092
0.999688366087148
0.9996876201033156
0.9996868413280279
0.9996860412935958
0.99968523091051
0.9996844203872866
0.9996836191646598
0.9996828358838147
0.9996820783849246
0.9996813537273482
0.9996806682227245
0.9996800274776347
0.9996794364426791
0.9996788994646689
0.9996784203397604
0.9996780023658259
0.9996776483930909
0.9996773608720506
0.9996771418982389
0.9996769932533317
0.9996769164425152
0.999676912727873
0.9996769831579039
0.9996771285930941
0.9996773497277609
0.9996776471081854
0.9996780211473129
0.9996784721360922
0.9996790002517657
0.9996796055632118
0.9996802880336625
0.9996810475209308
0.999681883775455
0.9996827964363162
0.9996837850255331
0.9996848489407937
0.999685987446926
0.9996871996662652
0.9996884845682099
0.9996898409581397
0.99969126746596
0.9996927625344587
0.9996943244077258
0.9996959511198205
0.9996976404839267
0.9996993900821805
0.9997011972563913
0.9997030590998461
0.9997049724503948
0.9997069338849999
0.999708939715936
0.9997109859888023
0.9997130684825108
0.9997151827114014
0.9997173239296109
0.9997194871378277
0.9997216670925156
0.9997238583177124
0.9997260551194422
0.9997282516028028
0.999730441691721
0.9997326191513867
0.9997347776132989
0.9997369106028888
0.9997390115695793
0.9997410739191912
0.9997430910484985
0.9997450563817702
0.9997469634090423
0.9997488057259009
0.9997505770744549
0.9997522713852293
0.9997538828196064
0.9997554058125012
0.9997568351148622
0.9997581658356567
0.9997593934829032
0.9997605140034133
0.9997615238207929
0.9997624198713814
0.9997631996377043
0.999763861179145
0.9997644031594611
0.9997648248709068
0.9997651262546523
0.9997653079173384
0.9997653711435451
0.9997653179040948
0.9997651508600702
0.9997648733625721
0.9997644894481805
0.9997640038302479
0.9997634218860723
0.9997627496401529
0.9997619937436382
0.9997611614502027
0.9997602605884748
0.9997592995312218
0.9997582871613465
0.9997572328347798
0.9997561463401172
0.9997550378548214
0.999753917897548
0.9997527972759898
0.9997516870290324
0.999750598362056
0.9997495425745054
0.999748530979435
0.9997475748097155
0.9997466851142277
0.9997458726505348
0.999745147810497
0.9997445205107515
0.999744000327175
0.9997435965855936
0.9997433189833024
0.999743177636578
0.9997431851899419
0.999743350818761
0
0
0.9996926744253563
0.9996923911363254
0.9996920146605975
0.9996915519717257
0.9996910130732568
0.9996904078030205
0.9996897467184594
0.9996890404180051
0.9996882993849437
0.999687533885252
0.9996867538287105
0.9996859686668568
0.9996851873045832
0.9996844180317997
0.9996836684889105
0.9996829456548793
0.9996822558522116
0.999681604766311
0.9996809974755142
0.9996804384880442
0.9996799317829144
0.9996794808530352
0.9996790887487105
0.9996787581204573
0.9996784912600355
0.9996782901392229
0.9996781564456959
0.9996780916158872
0.9996780968644646
0.9996781732105137
0.9996783215002408
0.9996785424264054
0.9996788365444057
0.9996792042852906
0.9996796459657016
0.999680161795043
0.9996807518799319
0.9996814162262404
0.9996821547388169
0.999682967219195
0.9996838533613973
0.9996848127461414
0.9996858448335695
0.9996869489548003
0.9996881243024321
0.999689369920287
0.9996906846925407
0.9996920673325034
0.9996935163712133
0.9996950301460922
0.9996966067898293
0.999698244219735
0.9996999401277246
0.9997016919711694
0.999703496964774
0.9997053520736934
0.999707254008055
0.9997091992190782
0.9997111838969417
0.9997132039705778
0.9997152551095214
0.9997173327279654
0.9997194319911343
0.9997215478240824
0.9997236749230064
0.9997258077691306
0.9997279406452184
0.9997300676547167
0.9997321827435434
0.999734279724459
0.9997363523039886
0.9997383941117678
0.9997403987322201
0.9997423597383738
0.9997442707276627
0.999746125359463
0.9997479173941364
0.999749640733279
0.9997512894608958
0.9997528578851331
0.9997543405802628
0.9997557324284937
0.9997570286612849
0.9997582248997118
0.9997593171935398
0.9997603020585696
0.999761176511902
0.999761938104716
0.9997625849522418
0.9997631157605569
0.9997635298499529
0.9997638271745586
0.9997640083380459
0.9997640746051866
0.9997640279091707
0.9997638708545576
0.9997636067158668
0.9997632394317628
0.9997627735949516
0.9997622144378171
0.9997615678139967
0.9997608401759795
0.9997600385489704
0.999759170501122
0.9997582441103505
0.9997572679277972
0.9997562509380571
0.9997552025160994
0.9997541323807988
0.9997530505447436
0.999751967260056
0.9997508929597524
0.9997498381939918
0.999748813560124
0.99974782962788
0.9997468968611356
0.9997460255382348
0.9997452256690044
0.9997445069514768
0.9997438787506605
0.9997433501818622
0.9997429302432896
0.9997426281334544
0.9997424528690785
0.99974241549197
0.9997425236840247
0
0
0.9996938177273866
0.9996934150006622
0.9996929418285959
0.9996924034394894
0.9996918069042062
0.9996911599332536
0.999690471016144
0.9996897488092319
0.9996890020682829
0.9996882394483418
0.9996874693695271
0.9996866999187446
0.9996859387619877
0.9996851930833027
0.9996844695455148
0.999683774269214
0.9996831128289805
0.9996824902635131
0.9996819110954352
0.9996813793582608
0.9996808986280933
0.9996804720582857
0.9996801024151968
0.9996797921140492
0.9996795432537381
0.999679357650099
0.9996792368669105
0.9996791822444746
0.9996791949253343
0.999679275877194
0.9996794259127778
0.9996796457068192
0.9996799358100426
0.9996802966603959
0.9996807285914788
0.9996812318384606
0.9996818065414899
0.9996824527468995
0.9996831704062544
0.9996839593735433
0.9996848194005878
0.9996857501309708
0.9996867510925727
0.9996878216890094
0.9996889611900807
0.9996901687215067
0.9996914432540743
0.9996927835924649
0.9996941883638921
0.9996956560068092
0.9996971847598243
0.9996987726510734
0.9997004174881897
0.9997021168491165
0.9997038680738954
0.9997056682576685
0.9997075142450251
0.9997094026259106
0.9997113297332315
0.9997132916423391
0.9997152841725239
0.9997173028906715
0.9997193431171937
0.9997213999343494
0.9997234681970415
0.9997255425461612
0.9997276174245315
0.9997296870954671
0.9997317456639601
0.999733787100448
0.9997358052671245
0.9997377939466795
0.9997397468733784
0.999741657766294
0.9997435203645376
0.9997453284642458
0.999747075957095
0.9997487568700456
0.9997503654060336
0.9997518959852458
0.9997533432866614
0.9997547022894466
0.9997559683138566
0.9997571370612057
0.9997582046525422
0.9997591676655903
0.9997600231696022
0.9997607687576947
0.9997614025763544
0.9997619233517178
0.9997623304123749
0.9997626237083596
0.9997628038261503
0.9997628719994293
0.9997628301155143
0.9997626807173037
0.9997624270007461
0.9997620728077735
0.999761622614805
0.9997610815168466
0.9997604552073727
0.9997597499540831
0.9997589725707678
0.9997581303853927
0.99975723120466
0.9997562832751057
0.9997552952409439
0.9997542760986268
0.9997532351482398
0.9997521819415639
0.9997511262267343
0.9997500778893191
0.9997490468901301
0.9997480431997388
0.9997470767300858
0.9997461572651738
0.9997452943979266
0.9997444974732446
0.999743775554713
0.9997431374240842
0.9997425916254301
0.9997421464930596
0.9997418104646422
0.9997415914942646
0.9997414985546402
0.9997415381429239
0
0
0.9996950369343703
0.9996945106535856
0.9996939350067571
0.9996933135963613
0.9996926512401137
0.9996919538732179
0.9996912280768397
0.9996904808040302
0.9996897192180775
0.9996889504802854
0.9996881816306785
0.9996874194810995
0.9996866705317686
0.9996859409115197
0.9996852363352483
0.9996845620794425
0.9996839229728995
0.9996833233994917
0.9996827673102251
0.999682258242672
0.9996817993452581
0.9996813934048369
0.9996810428758374
0.9996807499100847
0.9996805163860949
0.9996803439373724
0.9996802339789357
0.9996801877319145
0.9996802062457163
0.999680290417812
0.9996804410108272
0.9996806586671136
0.9996809439206126
0.9996812972062595
0.9996817188668259
0.999682209157494
0.9996827682481052
0.9996833962234062
0.9996840930812788
0.9996848587292683
0.9996856929794382
0.9996865955418585
0.9996875660167766
0.9996886038857788
0.9996897085019983
0.9996908790796757
0.9996921146831439
0.999693414215528
0.9996947764072527
0.9996961998046303
0.9996976827586365
0.9996992234141396
0.999700819699695
0.9997024693181625
0.9997041697382615
0.9997059181873109
0.9997077116452745
0.9997095468403325
0.9997114202461113
0.9997133280807561
0.9997152663079817
0.9997172306402526
0.999719216544211
0.9997212192484753
0.9997232337538884
0.9997252548463136
0.9997272771120117
0.9997292949556409
0.999731302620884
0.9997332942136733
0.9997352637279692
0.9997372050740009
0.9997391121088587
0.9997409786692834
0.9997427986064826
0.9997445658227389
0.9997462743095856
0.9997479181872494
0.9997494917450725
0.9997509894825585
0.9997524061507098
0.9997537367932414
0.9997549767873265
0.9997561218834099
0.9997571682437378
0.9997581124791384
0.9997589516836939
0.9997596834668687
0.9997603059827593
0.9997608179560612
0.9997612187044929
0.9997615081573191
0.9997616868697947
0.999761756033254
0.9997617174807573
0.9997615736881174
0.9997613277703153
0.9997609834732295
0.9997605451607889
0.9997600177975611
0.999759406926977
0.9997587186452769
0.9997579595714344
0.9997571368131846
0.9997562579294403
0.999755330889221
0.9997543640273505
0.9997533659970118
0.9997523457193648
0.9997513123302915
0.9997502751244911
0.9997492434969499
0.9997482268822142
0.9997472346922746
0.999746276254448
0.9997453607501773
0.9997444971596624
0.9997436942169308
0.9997429603800593
0.9997423038189789
0.9997417324463894
0.9997412538592789
0.9997408755384141
0.9997406044630458
0.9997404477400547
0.9997404106302117
0
0
0.999696308572672
0.9996956567281918
0.9996949747959207
0.9996942650501824
0.999693530640268
0.9996927759135968
0.9996920058249151
0.9996912258320396
0.9996904416411612
0.9996896590506316
0.9996888838260757
0.9996881215924374
0.9996873777548644
0.999686657439109
0.9996859654489445
0.9996853062399066
0.9996846839059368
0.9996841021772587
0.9996835644270755
0.9996830736852063
0.9996826326564375
0.9996822437423522
0.9996819090649816
0.9996816304914687
0.9996814096585454
0.9996812479964245
0.9996811467512849
0.9996811070062186
0.9996811297000904
0.9996812156443683
0.9996813655375607
0.9996815799774361
0.999681859470793
0.999682204441031
0.9996826152333655
0.9996830921179963
0.9996836352911185
0.9996842448741076
0.9996849209108206
0.9996856633633386
0.9996864721061341
0.9996873469189782
0.9996882874786047
0.9996892933494351
0.9996903639734016
0.9996914986591687
0.9996926965708002
0.9996939567161726
0.9996952779351927
0.9996966588881108
0.9996980980440003
0.9996995936696937
0.9997011438192526
0.9997027463242455
0.9997043987849357
0.9997060985626263
0.9997078427732797
0.9997096282826412
0.9997114517029834
0.9997133093916782
0.9997151974517146
0.9997171117343391
0.9997190478439171
0.9997210011451658
0.9997229667728303
0.9997249396439096
0.9997269144724767
0.9997288857871343
0.9997308479511224
0.999732795185053
0.9997347215922313
0.9997366211864802
0.9997384879223608
0.9997403157276398
0.9997420985378278
0.999743830332572
0.9997455051736591
0.9997471172443421
0.9997486608896936
0.9997501306576243
0.9997515213402342
0.9997528280150738
0.999754046085951
0.9997551713228284
0.9997561999004336
0.9997571284351054
0.9997579540195161
0.9997586742548015
0.9997592872797653
0.9997597917967319
0.9997601870937693
0.9997604730629197
0.9997606502142333
0.9997607196853263
0.9997606832463604
0.9997605433002519
0.9997603028781255
0.9997599656299112
0.9997595358102103
0.9997590182594381
0.9997584183804454
0.9997577421107261
0.9997569958904761
0.9997561866266705
0.9997553216534729
0.9997544086891564
0.9997534557898741
0.9997524713004595
0.9997514638025913
0.9997504420605022
0.9997494149646537
0.9997483914737287
0.9997473805555194
0.9997463911273736
0.999745431997865
0.9997445118112217
0.9997436389967029
0.9997428217260562
0.9997420678826849
0.9997413850308763
0.9997407804229554
0.9997402609388146
0.9997398331163275
0.9997395029534535
0.9997392760970834
0.9997391566734302
0
0
0.9996976116859873
0.9996968336657012
0.9996960431435539
0.9996952413928388
0.999694430244402
0.9996936126945071
0.9996927923382497
0.9996919732990971
0.999691159979793
0.9996903569441564
0.9996895687840902
0.9996888000230367
0.9996880550401669
0.999687338012487
0.9996866528733692
0.99968600328545
0.999685392625206
0.9996848239778937
0.9996843001403951
0.999683823630523
0.9996833967008465
0.9996830213559607
0.9996826993716248
0.9996824323150812
0.9996822215654082
0.9996820683335595
0.9996819736812524
0.9996819385386186
0.9996819637200244
0.9996820499381529
0.999682197815928
0.9996824078964858
0.9996826806509044
0.999683016483963
0.9996834157377247
0.999683878693264
0.999684405570389
0.9996849965256931
0.9996856516488442
0.9996863709574397
0.9996871543903795
0.9996880018000749
0.9996889129434766
0.9996898874722396
0.9996909249220198
0.9996920247012197
0.9996931860791982
0.999694408174253
0.9996956899414068
0.9996970301603
0.9996984274232393
0.9996998801236965
0.9997013864453188
0.9997029443517405
0.9997045515772676
0.9997062056187171
0.9997079037284905
0.9997096429091433
0.9997114199095468
0.9997132312228711
0.9997150730864919
0.9997169414840209
0.9997188321495469
0.9997207405742616
0.9997226620155313
0.9997245915085424
0.9997265238805562
0.9997284537678454
0.9997303756353034
0.9997322837987412
0.9997341724498097
0.9997360356834896
0.999737867528034
0.9997396619772208
0.9997414130247461
0.9997431147005332
0.9997447611087248
0.9997463464670572
0.999747865147322
0.9997493117165531
0.9997506809785852
0.9997519680155689
0.999753168229053
0.9997542773801786
0.9997552916285838
0.9997562075695399
0.9997570222689278
0.999757733295586
0.9997583387506684
0.9997588372935766
0.9997592281641665
0.9997595112008582
0.9997596868544165
0.9997597561971275
0.9997597209272391
0.9997595833684795
0.9997593464646439
0.999759013769168
0.9997585894297919
0.999758078168339
0.9997574852558263
0.9997568164830147
0.9997560781267115
0.9997552769120012
0.9997544199707843
0.9997535147968509
0.9997525691979009
0.999751591244771
0.9997505892183285
0.9997495715543385
0.9997485467868158
0.9997475234903306
0.9997465102220556
0.9997455154642418
0.9997445475682648
0.9997436147016597
0.9997427247995397
0.9997418855206082
0.9997411042121257
0.9997403878707839
0.9997397431147139
0.9997391761374912
0.9997386926543231
0.9997382977573238
0.9997379959336619
0.9997377904089321
0
0
0.9996989274584778
0.9996980235886264
0.9996971233202739
0.9996962271530805
0.9996953358490266