# vtk DataFile Version 2.0
2D-ADE data file 
ASCII
DATASET RECTILINEAR_GRID
DIMENSIONS 128 128 1 
X_COORDINATES 128 int
0 1 2 3 4 5 6 7 8 9 10 11 12 13 14 15 16 17 18 19 20 21 22 23 24 25 26 27 28 29 30 31 32 33 34 35 36 37 38 39 40 41 42 43 44 45 46 47 48 49 50 51 52 53 54 55 56 57 58 59 60 61 62 63 64 65 66 67 68 69 70 71 72 73 74 75 76 77 78 79 80 81 82 83 84 85 86 87 88 89 90 91 92 93 94 95 96 97 98 99 100 101 102 103 104 105 106 107 108 109 110 111 112 113 114 115 116 117 118 119 120 121 122 123 124 125 126 127 
Y_COORDINATES 128 int
0 1 2 3 4 5 6 7 8 9 10 11 12 13 14 15 16 17 18 19 20 21 22 23 24 25 26 27 28 29 30 31 32 33 34 35 36 37 38 39 40 41 42 43 44 45 46 47 48 49 50 51 52 53 54 55 56 57 58 59 60 61 62 63 64 65 66 67 68 69 70 71 72 73 74 75 76 77 78 79 80 81 82 83 84 85 86 87 88 89 90 91 92 93 94 95 96 97 98 99 100 101 102 103 104 105 106 107 108 109 110 111 112 113 114 115 116 117 118 119 120 121 122 123 124 125 126 127 
Z_COORDINATES 1 int
0
POINT_DATA 16384
SCALARS density double
LOOKUP_TABLE default
0
0
0
0
0
0
0
0
0
0
0
0
0
0
0
0
0
0
0
0
0
0
0
0
0
0
0
0
0
0
0
0
0
0
0
0
0
0
0
0
0
0
0
0
0
0
0
0
0
0
0
0
0
0
0
0
0
0
0
0
0
0
0
0
0
0
0
0
0
0
0
0
0
0
0
0
0
0
0
0
0
0
0
0
0
0
0
0
0
0
0
0
0
0
0
0
0
0
0
0
0
0
0
0
0
0
0
0
0
0
0
0
0
0
0
0
0
0
0
0
0
0
0
0
0
0
0
0
0
0.999691401424035
0.9996914366194121
0.9996913327269932
0.9996910501545355
0.9996905910866365
0.9996899906186542
0.9996892815312569
0.9996884914613788
0.9996876447874571
0.9996867632752378
0.999685865836971
0.9996849687660276
0.9996840860841963
0.9996832298428298
0.9996824103641674
0.999681636458361
0.999680915616481
0.9996802541793671
0.999679657484749
0.9996791299961911
0.9996786754163178
0.9996782967863098
0.9996779965733642
0.9996777767475774
0.9996776388494623
0.9996775840491368
0.9996776131980523
0.9996777268740188
0.9996779254201786
0.9996782089785042
0.9996785775183131
0.9996790308602665
0.9996795686962435
0.9996801906054621
0.9996808960671858
0.9996816844703279
0.9996825551202316
0.9996835072429116
0.9996845399869942
0.9996856524236095
0.9996868435444529
0.9996881122582424
0.9996894573857695
0.99969087765376
0.9996923716877194
0.9996939380039703
0.9996955750010507
0.9996972809506561
0.999699053988302
0.9997008921038729
0.999702793132225
0.9997047547440086
0.9997067744368657
0.9997088495271603
0.9997109771423965
0.9997131542144676
0.9997153774738857
0.9997176434451256
0.9997199484432203
0.9997222885717328
0.9997246597222267
0.9997270575753415
0.999729477603585
0.99973191507592
0.9997343650642457
0.9997368224518187
0.9997392819436892
0.9997417380791732
0.9997441852463981
0.9997466176989106
0.9997490295743494
0.9997514149151332
0.9997537676911245
0.9997560818241832
0.9997583512145206
0.9997605697687322
0.9997627314293758
0.9997648302059265
0.9997668602069426
0.9997688156732256
0.9997706910117806
0.9997724808303251
0.9997741799721194
0.9997757835508505
0.9997772869853202
0.9997786860336594
0.9997799768268155
0.9997811559010373
0.9997822202291159
0.9997831672501315
0.9997839948974887
0.9997847016250313
0.9997852864310739
0.9997857488801961
0.9997860891227051
0.9997863079117013
0.9997864066177367
0.999786387241101
0.9997862524218435
0.9997860054476826
0.9997856502600436
0.9997851914585205
0.9997846343041604
0.999783984722026
0.9997832493036134
0.9997824353097718
0.999781550674892
0.9997806040132151
0.999779604628227
0.9997785625261818
0.9997774884348116
0.9997763938282687
0.9997752909592614
0.9997741928996169
0.9997731135877073
0.9997720678788315
0.9997710715913277
0.9997701415729819
0.9997692957255004
0.9997685528434321
0.99976793187911
0.9997674521456532
0.9997671332938253
0.9997669901810964
0.9997669920006363
0.9997670766316279
0
0
0.9996913485480468
0.9996913880467974
0.9996912831007934
0.9996910186283144
0.9996906146731426
0.9996900879427476
0.9996894617536753
0.9996887593096577
0.9996880023955486
0.9996872103128909
0.9996864002415407
0.9996855873374513
0.9996847848724061
0.9996840043901072
0.9996832558925686
0.9996825480113152
0.9996818881628365
0.9996812826890124
0.999680736984044
0.9996802556081527
0.9996798423890069
0.9996795005120929
0.9996792326010682
0.999679040789115
0.9996789267821029
0.9996788919143922
0.9996789371979068
0.9996790633651381
0.9996792709065685
0.9996795601030496
0.9996799310535265
0.9996803836985452
0.9996809178398601
0.9996815331565249
0.9996822292177128
0.9996830054926181
0.9996838613576426
0.9996847961011701
0.9996858089261291
0.9996868989505959
0.9996880652066349
0.9996893066375973
0.9996906220940607
0.9996920103286213
0.9996934699897032
0.9996949996145839
0.9996965976217924
0.9996982623030718
0.9996999918150519
0.9997017841708133
0.9997036372314901
0.9997055486980746
0.9997075161035732
0.9997095368056661
0.999711607980015
0.9997137266143574
0.9997158895035336
0.9997180932455687
0.9997203342389418
0.9997226086811632
0.9997249125687735
0.9997272416988617
0.9997295916722129
0.99973195789816
0.9997343356012187
0.9997367198295688
0.999739105465433
0.9997414872373793
0.9997438597345816
0.9997462174230183
0.9997485546636216
0.9997508657323114
0.9997531448418915
0.9997553861657072
0.9997575838629946
0.9997597321057857
0.9997618251072607
0.9997638571513662
0.9997658226235551
0.9997677160424353
0.9997695320921448
0.9997712656552079
0.9997729118456706
0.9997744660422425
0.9997759239212312
0.9997772814889836
0.9997785351136205
0.9997796815557772
0.9997807179981547
0.9997816420736128
0.9997824518916331
0.9997831460629281
0.999783723722069
0.9997841845479599
0.9997845287821018
0.999784757244547
0.9997848713475658
0.9997848731070216
0.9997847651515765
0.999784550729829
0.9997842337156175
0.9997838186117187
0.9997833105522941
0.9997827153044446
0.9997820392693625
0.9997812894835533
0.9997804736207485
0.9997795999950644
0.9997786775660805
0.9997777159463771
0.9997767254120923
0.999775716916704
0.9997747021077755
0.9997736933450644
0.9997727037188701
0.9997717470645822
0.9997708379637034
0.9997699916842147
0.9997692240648604
0.9997685513176867
0.999767989845556
0.9997675546722892
0.9997672571763536
0.9997670999253043
0.9997670780299148
0.999767161582975
0
0
0.9996914374609183
0.99969148240273
0.999691378528982
0.999691129037419
0.9996907590619588
0.9996902808908984
0.9996897143699772
0.9996890788397118
0.9996883928158955
0.9996876732346187
0.9996869356064376
0.9996861938212669
0.9996854602026073
0.9996847456103579
0.9996840595677242
0.9996834103794501
0.9996828052507636
0.9996822504013106
0.9996817511713026
0.9996813121187479
0.9996809371080065
0.9996806293900973
0.9996803916750632
0.9996802261969843
0.9996801347720615
0.9996801188503869
0.9996801795617891
0.999680317756296
0.9996805340395483
0.9996808288036431
0.9996812022536796
0.9996816544304316
0.9996821852293715
0.9996827944164194
0.999683481640618
0.9996842464440556
0.999685088269219
0.9996860064640727
0.999687000285013
0.999688068897981
0.9996892113778681
0.9996904267064692
0.9996917137691157
0.9996930713502211
0.9996944981278711
0.9996959926676662
0.9996975534159528
0.9996991786926356
0.9997008666837034
0.9997026154336475
0.9997044228379076
0.9997062866355114
0.9997082044020367
0.9997101735430582
0.9997121912882007
0.9997142546859479
0.9997163605993309
0.9997185057026221
0.9997206864791646
0.9997228992204369
0.9997251400264757
0.9997274048077452
0.9997296892885567
0.9997319890121005
0.9997342993471864
0.9997366154967262
0.9997389325080258
0.9997412452848975
0.9997435486016343
0.9997458371188155
0.9997481054009627
0.9997503479359771
0.9997525591563349
0.9997547334619447
0.9997568652446023
0.999758948913899
0.9997609789244987
0.9997629498045835
0.9997648561853616
0.999766692831397
0.999768454671618
0.9997701368307472
0.9997717346609767
0.9997732437736109
0.9997746600704901
0.999775979774908
0.9997771994618277
0.9997783160871214
0.9997793270156432
0.9997802300478793
0.9997810234450226
0.9997817059522354
0.9997822768200023
0.9997827358233867
0.9997830832791477
0.9997833200606049
0.9997834476102796
0.9997834679502846
0.9997833836905748
0.9997831980351242
0.9997829147862501
0.9997825383472319
0.9997820737235524
0.999781526523011
0.9997809029551157
0.9997802098300752
0.9997794545578536
0.9997786451476056
0.9997777902079025
0.9997768989478779
0.9997759811793504
0.9997750473195413
0.9997741083937794
0.9997731760353878
0.9997722624784275
0.9997713805362246
0.9997705435693411
0.9997697654030345
0.9997690601566895
0.9997684418429758
0.9997679242322515
0.999767519847628
0.9997672386557805
0.9997670819213494
0.9997670598962607
0.9997671660515552
0
0
0.9996917096361742
0.9996917362603647
0.9996916170840878
0.9996913674640302
0.9996910106011463
0.9996905604813804
0.9996900339097026
0.9996894464731094
0.9996888139687151
0.9996881513021696
0.9996874722410279
0.9996867892735029
0.99968611366385
0.99968545547356
0.9996848236202961
0.9996842259576112
0.9996836693643562
0.9996831598322558
0.9996827025506084
0.9996823019869499
0.9996819619625062
0.999681685721933
0.9996814759971204
0.9996813350653138
0.9996812648016055
0.9996812667261891
0.9996813420465244
0.9996814916948467
0.9996817163611833
0.99968201652231
0.9996823924667908
0.9996828443165064
0.9996833720448122
0.9996839754916805
0.9996846543759661
0.9996854083051265
0.9996862367825051
0.9996871392124969
0.9996881149036944
0.9996891630703025
0.999690282831924
0.9996914732119767
0.9996927331348406
0.9996940614219854
0.9996954567871653
0.9996969178309177
0.9996984430344606
0.9997000307531998
0.9997016792099471
0.9997033864880464
0.9997051505245096
0.9997069691033456
0.999708839849187
0.9997107602213855
0.9997127275086748
0.999714738824562
0.9997167911035542
0.9997188810983472
0.9997210053780908
0.9997231603278449
0.999725342149324
0.9997275468630269
0.9997297703118433
0.9997320081662077
0.9997342559308764
0.9997365089533726
0.9997387624341589
0.9997410114385453
0.9997432509103742
0.9997454756874523
0.9997476805187466
0.9997498600832759
0.9997520090106783
0.9997541219033556
0.9997561933601408
0.9997582180013382
0.999760190495064
0.9997621055846905
0.9997639581172866
0.9997657430728282
0.9997674555940427
0.9997690910166269
0.9997706448996843
0.9997721130561014
0.9997734915826908
0.9997747768898149
0.9997759657303168
0.9997770552274713
0.9997780429017944
0.9997789266964453
0.9997797050010815
0.9997803766739348
0.9997809410620087
0.999781398019211
0.9997817479223858
0.9997819916851074
0.9997821307692769
0.9997821671944591
0.9997821035450677
0.9997819429754261
0.9997816892128947
0.9997813465591557
0.9997809198899448
0.9997804146533701
0.9997798368671631
0.9997791931150372
0.9997784905424797
0.9997777368520879
0.9997769402986424
0.9997761096837882
0.9997752543500805
0.999774384173329
0.999773509551945
0.9997726413913196
0.999771791080865
0.9997709704509371
0.9997701916999957
0.9997694672809966
0.9997688098007335
0.9997682317083066
0.9997677448767199
0.9997673595993216
0.9997670858599641
0.9997669299595378
0.999766908738709
0.9997670298986365
0
0
0.9996921591259428
0.9996921298574794
0.9996919758871373
0.9996917117503109
0.9996913536811992
0.9996909157711136
0.9996904123494549
0.9996898569162788
0.999689263029453
0.9996886435290802
0.9996880104760139
0.9996873750154482
0.9996867473228447
0.9996861365816382
0.999685551017905
0.9996849979492473
0.9996844838427899
0.999684014378625
0.999683594515827
0.999683228557639
0.9996829202139644
0.9996826726605421
0.9996824885941074
0.9996823702834469
0.9996823196160423
0.9996823381405339
0.99968242710492
0.9996825874908305
0.9996828200438722
0.9996831253004252
0.9996835036109236
0.999683955159993
0.9996844799834983
0.9996850779828611
0.9996857489366958
0.9996864925101131
0.9996873082617364
0.9996881956487588
0.9996891540300905
0.9996901826678973
0.9996912807275845
0.9996924472765113
0.9996936812814822
0.9996949816052895
0.9996963470023599
0.9996977761137487
0.9996992674615502
0.9997008194429517
0.999702430323997
0.9997040982332731
0.9997058211555984
0.9997075969259033
0.9997094232233857
0.9997112975661211
0.9997132173062123
0.9997151796256423
0.9997171815329143
0.9997192198606261
0.9997212912640698
0.9997233922209727
0.9997255190324752
0.9997276678254373
0.9997298345561605
0.9997320150155968
0.9997342048361119
0.999736399499855
0.9997385943487819
0.9997407845963485
0.9997429653409079
0.9997451315807877
0.9997472782310589
0.9997494001419333
0.9997514921187703
0.9997535489435968
0.9997555653980833
0.9997575362878423
0.9997594564679633
0.9997613208696065
0.9997631245275425
0.9997648626084241
0.999766530439651
0.9997681235385808
0.9997696376419335
0.9997710687351115
0.999772413081279
0.9997736672499039
0.999774828144614
0.9997758930300631
0.999776859557669
0.999777725789946
0.9997784902233058
0.9997791518090803
0.9997797099726896
0.9997801646307355
0.9997805162060085
0.99978076564024
0.9997809144046469
0.9997809645081657
0.9997809185035004
0.9997807794909341
0.9997805511201148
0.9997802375898119
0.9997798436459174
0.9997793745777398
0.9997788362128659
0.9997782349106541
0.9997775775545819
0.9997768715433991
0.9997761247811222
0.9997753456654805
0.9997745430744731
0.9997737263500318
0.9997729052772216
0.9997720900555201
0.9997712912603638
0.9997705197912058
0.9997697868004443
0.9997691035664192
0.9997684813505788
0.9997679311948414
0.9997674638126028
0.999767088873707
0.9997668163683835
0.9997666553681114
0.9997666201693838
0.9997667221937478
0
0
0.9996927510218644
0.9996926472995569
0.9996924432446279
0.9996921485593603
0.9996917751308714
0.9996913352960147
0.9996908410017029
0.9996903039370204
0.999689735582936
0.9996891469728809
0.9996885486290483
0.9996879503801078
0.9996873612903461
0.999686789635484
0.999686242905879
0.9996857278245854
0.9996852503826946
0.9996848158842004
0.9996844289949557
0.9996840937932359
0.9996838138201637
0.999683592128895
0.9996834313313752
0.9996833336423743
0.9996833009202538
0.9996833347045398
0.9996834362500232
0.9996836065576284
0.9996838464019072
0.9996841563554917
0.9996845368104175
0.9996849879966827
0.9996855099979973
0.9996861027650835
0.9996867661264999
0.999687499797351
0.999688303385857
0.9996891763981324
0.9996901182411635
0.999691128224308
0.999692205559316
0.9996933493591804
0.9996945586358204
0.9996958322968885
0.9996971691417141
0.9996985678566528
0.999700027009862
0.9997015450457621
0.9997031202792047
0.9997047508895879
0.999706434914958
0.9997081702463159
0.9997099546221675
0.9997117856235345
0.9997136606694619
0.999715577013219
0.9997175317392427
0.9997195217609941
0.9997215438197847
0.9997235944847191
0.9997256701538121
0.9997277670564004
0.9997298812569066
0.9997320086600485
0.9997341450175399
0.9997362859363482
0.9997384268885449
0.9997405632227758
0.9997426901773723
0.9997448028950935
0.9997468964395024
0.9997489658129173
0.9997510059759245
0.9997530118683523
0.9997549784316588
0.9997569006325939
0.9997587734880622
0.999760592091004
0.9997623516371951
0.9997640474527394
0.9997656750221396
0.999767230016683
0.9997687083230081
0.9997701060715657
0.9997714196648336
0.9997726458049798
0.9997737815208343
0.9997748241938631
0.9997757715830163
0.9997766218481563
0.9997773735719572
0.999778025780013
0.9997785779590831
0.9997790300732418
0.9997793825779222
0.99977963643166
0.9997797931055936
0.9997798545905755
0.999779823402019
0.999779702582391
0.9997794957015343
0.999779206854774
0.9997788406590418
0.9997784022469932
0.9997778972593515
0.9997773318354333
0.9997767126020147
0.999776046660366
0.9997753415714378
0.9997746053386956
0.9997738463880713
0.9997730735439256
0.9997722960001741
0.9997715232841864
0.9997707652097217
0.9997700318136151
0.9997693332829614
0.9997686798604573
0.9997680817226924
0.9997675487830157
0.9997670907106718
0.9997667167479076
0.9997664364302173
0.9997662594463829
0.9997661969591775
0.9997662582374995
0
0
0.9996934540025129
0.9996932659916336
0.9996929998439437
0.9996926619048381
0.9996922613769667
0.9996918077692423
0.9996913108281484
0.9996907804400579
0.999690226305017
0.9996896578742323
0.9996890842179711
0.9996885139002867
0.9996879549132679
0.999687414628892
0.9996868997780843
0.9996864164538116
0.9996859701297772
0.9996855656881679
0.9996852074536994
0.9996848992317782
0.999684644348178
0.9996844456889412
0.999684305739196
0.9996842266204908
0.999684210125849
0.9996842577525255
0.9996843707319908
0.9996845500573499
0.9996847965078954
0.9996851106711049
0.999685492961886
0.9996859436394201
0.9996864628214682
0.9996870504965122
0.9996877065336168
0.9996884306903928
0.9996892226189746
0.9996900818703697
0.9996910078971193
0.9996920000546111
0.9996930576009933
0.9996941796960193
0.9996953653987793
0.9996966136646345
0.9996979233413188
0.9996992931645059
0.9997007217528195
0.9997022076025676
0.9997037490821841
0.9997053444266473
0.9997069917318704
0.9997086889493064
0.9997104338807804
0.9997122241737784
0.9997140573172029
0.9997159306378114
0.9997178412973606
0.9997197862906431
0.9997217624444501
0.9997237664176257
0.9997257947022443
0.9997278436260572
0.9997299093562324
0.9997319879045135
0.9997340751338106
0.9997361667663177
0.9997382583931662
0.9997403454856654
0.9997424234081325
0.9997444874323191
0.9997465327534237
0.999748554507652
0.9997505477912894
0.9997525076812134
0.999754429256777
0.9997563076229483
0.9997581379346149
0.9997599154218915
0.9997616354163148
0.9997632933777263
0.9997648849217037
0.9997664058472998
0.9997678521649508
0.9997692201242631
0.9997705062415481
0.9997717073267905
0.9997728205099217
0.9997738432660774
0.9997747734397237
0.9997756092673381
0.9997763493985563
0.9997769929154898
0.9997775393501628
0.9997779886998062
0.9997783414400062
0.9997785985354879
0.9997787614485889
0.9997788321452453
0.9997788130986159
0.9997787072902022
0.9997785182086527
0.9997782498461408
0.9997779066925369
0.9997774937272839
0.9997770164091825
0.9997764806639591
0.9997758928697519
0.9997752598402505
0.9997745888054229
0.9997738873893361
0.9997731635846772
0.9997724257228232
0.999771682438327
0.9997709426264979
0.9997702153935097
0.9997695099941073
0.9997688357551342
0.999768201986645
0.999767617903816
0.9997670925137506
0.9997666346082408
0.9997662527766333
0.9997659555714433
0.999765751547705
0.999765650036277
0.9997656576960037
0
0
0.9996942418688505
0.9996939636852045
0.9996936271443828
0.999693236858066
0.9996927994465982
0.9996923220271262
0.9996918124570091
0.9996912788236967
0.9996907292189572
0.9996901716341673
0.9996896138069423
0.9996890631287848
0.9996885265649356
0.9996880105976793
0.9996875211977831
0.9996870638149103
0.9996866433812083
0.9996862643260898
0.9996859305987631
0.9996856456957617
0.9996854126910355
0.9996852342675578
0.999685112748934
0.9996850501305146
0.9996850481090424
0.9996851081107789
0.9996852313174871
0.9996854186904393
0.9996856709920284
0.9996859888052728
0.9996863725509149
0.9996868225024682
0.999687338798985
0.999687921455926
0.9996885703739492
0.9996892853460093
0.9996900660626156
0.9996909121156284
0.9996918230004768
0.9996927981171561
0.9996938367699063
0.999694938165924
0.999696101413013
0.9996973255165207
0.9996986093754692
0.9996999517782188
0.9997013513975853
0.9997028067857257
0.9997043163687342
0.9997058784412444
0.9997074911609867
0.9997091525435826
0.9997108604575455
0.9997126126197343
0.9997144065912547
0.9997162397740327
0.9997181094080602
0.9997200125695191
0.9997219461697945
0.9997239069555561
0.999725891509926
0.9997278962548865
0.9997299174549449
0.999731951222184
0.9997339935227084
0.9997360401845897
0.9997380869073047
0.9997401292727397
0.9997421627577423
0.9997441827482547
0.9997461845549923
0.9997481634306535
0.9997501145886191
0.999752033223068
0.9997539145304478
0.9997557537321878
0.999757546098559
0.9997592869735293
0.9997609718004983
0.9997625961487022
0.9997641557401719
0.9997656464769827
0.9997670644686711
0.9997684060595213
0.9997696678555911
0.9997708467511626
0.9997719399544834
0.9997729450124785
0.9997738598343091
0.9997746827134633
0.999775412348282
0.9997760478606154
0.9997765888125574
0.9997770352209805
0.9997773875698618
0.9997776468201601
0.9997778144173018
0.9997778922960583
0.999777882882947
0.9997777890959713
0.9997776143418776
0.9997773625107861
0.9997770379683887
0.9997766455455858
0.9997761905257463
0.9997756786294119
0.999775115996566
0.9997745091661812
0.9997738650529966
0.9997731909209652
0.9997724943531087
0.9997717832169934
0.999771065625098
0.9997703498883639
0.9997696444626706
0.9997689578883187
0.9997682987220555
0.9997676754568618
0.9997670964504887
0.9997665698648843
0.9997661036331066
0.9997657054771658
0.9997653829322868
0.9997651430357545
0.9997649932837759
0.9997649388656779
0
0
0.9996950915399582
0.999694719566491
0.9996943073562444
0.9996938581317216
0.999693376200918
0.9996928669435023
0.999692336473382
0.9996917912419397
0.9996912378953904
0.9996906830887631
0.9996901333460885
0.9996895949667076
0.9996890739416331
0.9996885758979872
0.999688106062553
0.9996876692417345
0.9996872698156692
0.9996869117436822
0.9996865985771869
0.9996863334782669
0.999686119241741
0.999685958319613
0.9996858528462486
0.9996858046638343
0.9996858153470407
0.9996858862268195
0.9996860184125793
0.9996862128129095
0.9996864701543109
0.9996867909982347
0.9996871757560228
0.9996876247021274
0.9996881379852764
0.9996887156380123
0.9996893575843167
0.9996900636457613
0.9996908335459446
0.9996916669136392
0.9996925632844491
0.9996935221013962
0.9996945427142393
0.9996956243779503
0.9996967662501651
0.9996979673880074
0.99969922674414
0.9997005431624052
0.9997019153729373
0.99970334198709
0.9997048214920716
0.9997063522456184
0.9997079324706153
0.9997095602499727
0.9997112335216807
0.9997129500743399
0.9997147075430973
0.9997165034062669
0.9997183349825791
0.9997201994293112
0.9997220937412621
0.9997240147507929
0.9997259591289074
0.9997279233875649
0.9997299038832083
0.9997318968216675
0.9997338982644177
0.9997359041363266
0.9997379102348618
0.9997399122408493
0.9997419057307583
0.9997438861905508
0.9997458490310605
0.9997477896048976
0.9997497032248229
0.9997515851835396
0.9997534307748309
0.9997552353159368
0.9997569941710777
0.9997587027759728
0.9997603566632359
0.999761951488447
0.9997634830567741
0.9997649473498894
0.9997663405530467
0.9997676590820329
0.9997688996098446
0.999770059092785
0.9997711347958338
0.9997721243169696
0.999773025610315
0.9997738370077784
0.9997745572390931
0.999775185449938
0.9997757212180787
0.9997761645672351
0.99977651597867
0.9997767764002264
0.9997769472528711
0.9997770304345083
0.9997770283211773
0.9997769437654325
0.9997767800920695
0.9997765410910205
0.9997762310076151
0.9997758545300254
0.9997754167740953
0.9997749232653297
0.9997743799181856
0.9997737930123395
0.9997731691659713
0.999772515305565
0.9997718386320198
0.9997711465823487
0.9997704467867997
0.9997697470206072
0.9997690551496278
0.9997683790694915
0.9997677266414319
0.9997671056247794
0.9997665236099599
0.9997659879649958
0.9997655057842415
0.9997650838298114
0.9997647285808241
0.9997644458526361
0.9997642412010306
0.9997641186755976
0
0
0.9996959823701266
0.9996955151461118
0.9996950240947121
0.9996945111876635
0.9996939790405872
0.9996934316123299
0.9996928734739872
0.999692309690873
0.999691745607043
0.9996911866646093
0.9996906382802225
0.9996901057429415
0.9996895941331504
0.9996891082654557
0.999688652647058
0.999688231452587
0.999687848511729
0.9996875073071425
0.9996872109799078
0.9996869623411513
0.9996867638874852
0.9996866178193301
0.999686526060499
0.9996864902786696
0.9996865119055525
0.9996865921567202
0.9996867320502365
0.999686932424284
0.9996871939531349
0.9996875171618025
0.9996879024388569
0.9996883500478203
0.9996888601367215
0.9996894327462569
0.9996900678162054
0.9996907651905655
0.9996915246210959
0.9996923457697351
0.9996932282096135
0.999694171425131
0.9996951748108311
0.9996962376695362
0.9996973592095002
0.9996985385410254
0.9996997746723204
0.9997010665050243
0.9997024128292067
0.9997038123182334
0.999705263523338
0.9997067648682697
0.9997083146438692
0.99970991100293
0.9997115519552154
0.9997132353629627
0.9997149589367678
0.999716720232158
0.9997185166467638
0.9997203454183726
0.999722203623789
0.9997240881787619
0.9997259958389124
0.999727923201896
0.9997298667107385
0.999731822658551
0.9997337871945636
0.9997357563316519
0.9997377259552908
0.9997396918340704
0.999741649631709
0.9997435949206429
0.9997455231971292
0.9997474298978841
0.9997493104181847
0.9997511601314005
0.9997529744098699
0.9997547486470308
0.9997564782807018
0.9997581588173745
0.9997597858573849
0.9997613551207833
0.9997628624737486
0.9997643039553165
0.9997656758042646
0.9997669744858747
0.9997681967184184
0.9997693394990494
0.999770400128959
0.9997713762374543
0.9997722658048382
0.999773067183738
0.9997737791187921
0.9997744007643525
0.999774931700147
0.9997753719445807
0.99977572196567
0.9997759826893211
0.9997761555049959
0.9997762422685146
0.9997762453021015
0.9997761673914477
0.9997760117799495
0.9997757821599257
0.999775482661002
0.9997751178354647
0.9997746926407861
0.9997742124190839
0.9997736828736907
0.9997731100425059
0.999772500268225
0.9997718601650145
0.9997711965816362
0.9997705165604158
0.9997698272919129
0.9997691360649488
0.9997684502123069
0.9997677770515119
0.9997671238219384
0.9997664976213307
0.9997659053412239
0.9997653536055344
0.9997648487157009
0.9997643965490305
0.9997640025307807
0.9997636714550308
0.9997634073008783
0.9997632130268915
0
0
0.9996968962911973
0.9996963338060513
0.999695762182582
0.9996951824175244
0.9996945959158456
0.9996940054051513
0.9996934141903075
0.999692826151049
0.9996922454719261
0.9996916765142962
0.9996911236900101
0.999690591360796
0.9996900837609675
0.9996896049392299
0.9996891587155787
0.9996887486530973
0.9996883780408141
0.9996880498864489
0.9996877669164982
0.9996875315823875
0.9996873460705122
0.9996872123155105
0.9996871320151218
0.9996871066463343
0.9996871374815745
0.9996872256049738
0.999687371927759
0.9996875772030137
0.9996878420390538
0.9996881669118058
0.999688552175573
0.9996889980726495
0.9996895047412716
0.9996900722224007
0.9996907004648992
0.9996913893296154
0.9996921385919781
0.9996929479436261
0.9996938169927114
0.99969474526339
0.999695732194174
0.999696777135641
0.999697879347208
0.999699037993445
0.9997002521396542
0.9997015207471858
0.9997028426682286
0.9997042166405271
0.9997056412817891
0.9997071150842195
0.9997086364089554
0.9997102034808258
0.9997118143832331
0.9997134670535487
0.9997151592788571
0.9997168886924013
0.9997186527705921
0.9997204488309142
0.999722274030594
0.999724125366353
0.9997259996751173
0.9997278936359751
0.9997298037732721
0.9997317264610971
0.9997336579290568
0.9997355942695567
0.9997375314464881
0.999739465305491
0.9997413915857015
0.9997433059330966
0.9997452039153433
0.9997470810382098
0.9997489327634367
0.9997507545280722
0.9997525417651516
0.9997542899256648
0.9997559945016854
0.9997576510505325
0.9997592552198371
0.999760802773317
0.9997622896171182
0.9997637118264825
0.9997650656725798
0.9997663476492251
0.999767554499313
0.9997686832406558
0.9997697311910653
0.9997706959923358
0.999771575632994
0.9997723684694528
0.9997730732454747
0.9997736891095766
0.9997742156303286
0.9997746528091889
0.9997750010908883
0.9997752613710263
0.9997754350009443
0.999775523789586
0.9997755300024621
0.999775456357458
0.9997753060176611
0.9997750825809733
0.9997747900667215
0.9997744328990378
0.9997740158872445
0.9997735442029854
0.9997730233543342
0.9997724591565663
0.9997718576997755
0.9997712253129363
0.9997705685245433
0.9997698940194294
0.9997692085918622
0.9997685190944589
0.9997678323834259
0.9997671552603589
0.9997664944108802
0.9997658563415306
0.9997652473149531
0.9997646732797844
0.9997641398039755
0.9997636519892926
0.9997632143400161
0.9997628307231682
0.9997625039612976
0.9997622360975211
0
0
0.9996978175078459
0.9996971606561246
0.9996965078004808
0.9996958592359289
0.9996952154406893
0.9996945781338528
0.9996939495939864
0.9996933326722587
0.9996927305453771
0.9996921466182037
0.9996915843956126
0.9996910473935542
0.9996905390648287
0.9996900627421228
0.9996896215951685
0.9996892186008997
0.9996888565236618
0.9996885379046667
0.999688265058145
0.9996880400733524
0.999687864820426
0.9996877409595991
0.9996876699521218
0.9996876530727355
0.9996876914224155
0.9996877859414975
0.9996879374221589
0.9996881465205688
0.9996884137678647
0.9996887395804029
0.999689124268577
0.9996895680447188
0.9996900710294867
0.999690633257291
0.9996912546802245
0.9996919351710812
0.9996926745249708
0.999693472460121
0.9996943286174158
0.999695242559248
0.999696213767278
0.999697241639659
0.9996983254873463
0.9996994645300398
0.9997006578914044
0.9997019045940945
0.999703203554252
0.9997045535759911
0.9997059533455614
0.9997074014256759
0.9997088962497274
0.9997104361163562
0.9997120191841187
0.9997136434666904
0.9997153068283883
0.9997170069804142
0.9997187414776258
0.9997205077162215
0.9997223029321549
0.9997241242006442
0.9997259684366109
0.9997278323963773
0.9997297126804763
0.9997316057378669
0.9997335078714211
0.9997354152449315
0.9997373238915164
0.9997392297236234
0.9997411285445139
0.9997430160613726
0.9997448878999264
0.9997467396206593
0.999748566736498
0.999750364732002
0.9997521290839085
0.9997538552830133
0.9997555388572262
0.9997571753957043
0.9997587605739034
0.9997602901793797
0.9997617601381686
0.9997631665415201
0.9997645056728053
0.999765774034324
0.9997669683738264
0.999768085710433
0.9997691233597856
0.9997700789580735
0.9997709504847868
0.9997717362838351
0.9997724350829068
0.9997730460107089
0.9997735686120104
0.999774002860132
0.9997743491668694
0.9997746083895146
0.9997747818350233
0.9997748712610206
0.9997748788737671
0.9997748073228004
0.9997746596924414
0.999774439489904
0.9997741506302507
0.99977379741794
0.9997733845252416
0.9997729169672582
0.999772400073836
0.9997718394580638
0.9997712409816409
0.9997706107167734
0.9997699549048377
0.9997692799114627
0.9997685921783586
0.9997678981716006
0.9997672043266955
0.9997665169905708
0.9997658423608572
0.9997651864224041
0.999764554881311
0.9997639530941062
0.9997633859836819
0.9997628579726692
0.9997623728185814
0.9997619336045542
0.9997615422834709
0.9997612002247477
0
0
0.9996987321185985
0.9996979823622503
0.9996972483974185
0.9996965300007488
0.9996958269293823
0.9996951401053059
0.999694470956029