# vtk DataFile Version 2.0
2D-ADE data file 
ASCII
DATASET RECTILINEAR_GRID
DIMENSIONS 128 128 1 
X_COORDINATES 128 int
0 1 2 3 4 5 6 7 8 9 10 11 12 13 14 15 16 17 18 19 20 21 22 23 24 25 26 27 28 29 30 31 32 33 34 35 36 37 38 39 40 41 42 43 44 45 46 47 48 49 50 51 52 53 54 55 56 57 58 59 60 61 62 63 64 65 66 67 68 69 70 71 72 73 74 75 76 77 78 79 80 81 82 83 84 85 86 87 88 89 90 91 92 93 94 95 96 97 98 99 100 101 102 103 104 105 106 107 108 109 110 111 112 113 114 115 116 117 118 119 120 121 122 123 124 125 126 127 
Y_COORDINATES 128 int
0 1 2 3 4 5 6 7 8 9 10 11 12 13 14 15 16 17 18 19 20 21 22 23 24 25 26 27 28 29 30 31 32 33 34 35 36 37 38 39 40 41 42 43 44 45 46 47 48 49 50 51 52 53 54 55 56 57 58 59 60 61 62 63 64 65 66 67 68 69 70 71 72 73 74 75 76 77 78 79 80 81 82 83 84 85 86 87 88 89 90 91 92 93 94 95 96 97 98 99 100 101 102 103 104 105 106 107 108 109 110 111 112 113 114 115 116 117 118 119 120 121 122 123 124 125 126 127 
Z_COORDINATES 1 int
0
POINT_DATA 16384
SCALARS density double
LOOKUP_TABLE default
0
0
0
0
0
0
0
0
0
0
0
0
0
0
0
0
0
0
0
0
0
0
0
0
0
0
0
0
0
0
0
0
0
0
0
0
0
0
0
0
0
0
0
0
0
0
0
0
0
0
0
0
0
0
0
0
0
0
0
0
0
0
0
0
0
0
0
0
0
0
0
0
0
0
0
0
0
0
0
0
0
0
0
0
0
0
0
0
0
0
0
0
0
0
0
0
0
0
0
0
0
0
0
0
0
0
0
0
0
0
0
0
0
0
0
0
0
0
0
0
0
0
0
0
0
0
0
0
0
0.9996967257474317
0.99969678166918
0.9996966868072047
0.9996963996127812
0.999695937478121
0.9996953381058938
0.9996946331159966
0.9996938493930503
0.9996930108579459
0.9996921386376179
0.9996912509577839
0.9996903635100366
0.9996894898177746
0.9996886415270639
0.9996878286455583
0.99968705975623
0.9996863422033209
0.9996856822527209
0.9996850852306863
0.9996845556445422
0.9996840972878704
0.9996837133322936
0.9996834064076408
0.9996831786719966
0.9996830318728688
0.9996829674005127
0.9996829863342894
0.9996830894828154
0.9996832774185355
0.9996835505072983
0.9996839089334106
0.9996843527206244
0.9996848817494397
0.9996854957710865
0.9996861944185003
0.9996869772146009
0.9996878435781292
0.99968879282732
0.9996898241816251
0.9996909367617237
0.9996921295880237
0.9996934015778504
0.9996947515415175
0.9996961781774517
0.9996976800665475
0.9996992556659148
0.9997009033021766
0.9997026211644761
0.9997044072973273
0.9997062595934668
0.9997081757868347
0.9997101534458217
0.9997121899669195
0.9997142825688824
0.9997164282875463
0.9997186239714034
0.9997208662780568
0.999723151671659
0.9997254764214452
0.9997278366014499
0.9997302280915088
0.9997326465796292
0.999735087565802
0.9997375463673386
0.9997400181257781
0.9997424978154322
0.9997449802535973
0.9997474601124682
0.9997499319327724
0.9997523901391193
0.9997548290570686
0.999757242931872
0.9997596259488654
0.9997619722554407
0.9997642759845283
0.9997665312794958
0.9997687323203598
0.9997708733511772
0.9997729487084835
0.9997749528506152
0.9997768803877525
0.9997787261124897
0.9997804850307475
0.9997821523928158
0.9997837237243252
0.9997851948569184
0.9997865619584192
0.9997878215622751
0.9997889705960699
0.9997900064089
0.9997909267974379
0.9997917300305023
0.999792414872
0.9997929806021087
0.9997934270366234
0.9997937545444046
0.9997939640629283
0.9997940571119706
0.9997940358055187
0.9997939028620606
0.9997936616134692
0.9997933160127671
0.9997928706411481
0.9997923307147032
0.9997917020914259
0.9997909912791502
0.9997902054452329
0.9997893524288934
0.9997884407573047
0.9997874796666577
0.9997864791295866
0.9997854498904187
0.9997844035097088
0.9997833524200292
0.9997823099938872
0.9997812906230316
0.9997803098005553
0.9997793842245621
0.999778531907954
0.9997777722308748
0.9997771254290942
0.9997766124057523
0.9997762550127359
0.9997760756900559
0.9997760662490184
0.9997761659963192
0
0
0.9996967072400464
0.9996967457281003
0.9996966397152701
0.9996963727719413
0.9996959669771616
0.9996954396664987
0.9996948148635274
0.9996941156505804
0.9996933632904912
0.9996925765345471
0.9996917720537863
0.9996909645299625
0.9996901668154574
0.9996893901084415
0.9996886441431032
0.9996879373576775
0.9996872770452235
0.9996866694884325
0.9996861200800814
0.9996856334298252
0.9996852134587058
0.9996848634827273
0.999684586286661
0.9996843841891507
0.9996842591000002
0.999684212570485
0.9996842458373542
0.9996843598611811
0.9996845553595637
0.9996848328357012
0.9996851926027474
0.99968563480435
0.9996861594317191
0.9996867663375588
0.9996874552471416
0.9996882257668248
0.9996890773902338
0.9996900095023821
0.9996910213819202
0.9996921122017515
0.9996932810281896
0.9996945268188675
0.9996958484195592
0.9996972445600998
0.9996987138495591
0.9997002547708329
0.9997018656747975
0.999703544774185
0.9997052901373048
0.9997070996817674
0.9997089711683261
0.9997109021949788
0.999712890191447
0.9997149324141547
0.9997170259418259
0.9997191676718137
0.9997213543172622
0.9997235824052186
0.9997258482757805
0.9997281480823793
0.9997304777932892
0.9997328331944336
0.9997352098935716
0.9997376033259261
0.9997400087613113
0.9997424213128036
0.9997448359470001
0.999747247495883
0.999749650670308
0.9997520400751122
0.9997544102258384
0.9997567555670335
0.9997590704920942
0.9997613493645902
0.9997635865410004
0.9997657763947617
0.9997679133415409
0.9997699918655926
0.9997720065470802
0.9997739520901998
0.9997758233519549
0.9997776153713963
0.9997793233991474
0.9997809429270199
0.9997824697175253
0.9997838998330635
0.9997852296646063
0.9997864559596513
0.9997875758492711
0.9997885868740456
0.9997894870087335
0.9997902746854892
0.9997909488155258
0.9997915088090745
0.9997919545935918
0.9997922866301396
0.9997925059279469
0.9997926140571658
0.9997926131599257
0.999792505959794
0.9997922957698495
0.9997919864996061
0.9997915826611171
0.9997910893746313
0.9997905123742846
0.9997898580143438
0.999789133276652
0.9997883457799461
0.9997875037918283
0.9997866162441653
0.9997856927527442
0.9997847436418446
0.9997837799742011
0.9997828135856808
0.9997818571242475
0.9997809240908461
0.999780028879934
0.9997791867802414
0.9997784139282263
0.9997777271592959
0.9997771440110086
0.9997766816142778
0.9997763550391144
0.9997761706918239
0.9997761312154407
0.9997762078035339
0
0
0.9996968186140743
0.9996968482940833
0.9996967354328121
0.9996964826614844
0.9996961097253014
0.9996956294166733
0.99969506236548
0.9996944276290068
0.9996937432501297
0.9996930257712898
0.9996922903053
0.9996915503469781
0.9996908178712656
0.9996901034531325
0.999689416394904
0.9996887648436337
0.9996881559082474
0.9996875957695568
0.9996870897811702
0.9996866425609648
0.999686258073731
0.9996859397054918
0.9996856903299929
0.9996855123680091
0.9996854078400107
0.9996853784128016
0.9996854254405955
0.9996855500010513
0.9996857529266515
0.999686034831876
0.9996863961364809
0.9996868370852677
0.9996873577646044
0.999687958116032
0.9996886379471763
0.9996893969402637
0.9996902346584201
0.9996911505500296
0.9996921439513071
0.9996932140873286
0.999694360071664
0.9996955809048313
0.9996968754717017
0.9996982425380566
0.999699680746421
0.99970118861135
0.9997027645142922
0.9997044066981927
0.9997061132619436
0.9997078821548453
0.9997097111711772
0.9997115979450242
0.999713539945458
0.999715534472211
0.9997175786519318
0.9997196694351524
0.9997218035940487
0.9997239777211119
0.9997261882288141
0.9997284313503605
0.9997307031416091
0.9997329994842351
0.9997353160902126
0.9997376485076694
0.9997399921281691
0.9997423421954694
0.9997446938157843
0.9997470419695752
0.9997493815248815
0.9997517072521911
0.9997540138408337
0.9997562959168712
0.9997585480624392
0.99976076483649
0.9997629407968555
0.9997650705235454
0.9997671486431893
0.9997691698544859
0.9997711289545491
0.9997730208659876
0.9997748406645801
0.9997765836073567
0.9997782451609323
0.9997798210298819
0.9997813071849927
0.9997826998911687
0.9997839957348262
0.9997851916505545
0.999786284946882
0.9997872733309471
0.9997881549319244
0.9997889283230373
0.9997895925420479
0.9997901471100867
0.9997905920487732
0.999790927895543
0.9997911557172006
0.99979127712168
0.9997912942681223
0.9997912098753324
0.9997910272288147
0.9997907501865577
0.9997903831838624
0.9997899312374926
0.9997893999495465
0.9997887955114275
0.9997881247084053
0.9997873949251994
0.9997866141531104
0.9997857909990537
0.999784934696807
0.9997840551204376
0.9997831627998731
0.9997822689370289
0.9997813854192732
0.9997805248222307
0.9997797004073196
0.9997789260905651
0.9997782163580451
0.9997775859042779
0.9997770494687626
0.9997766211363598
0.999776314142551
0.9997761327586814
0.9997760850995411
0.9997761659325335
0
0
0.9996970909552689
0.9996971003113805
0.9996969700883694
0.9996967137080514
0.9996963520385403
0.9996958989551336
0.9996953704950545
0.9996947819252143
0.9996941488179875
0.9996934857414801
0.999692806091721
0.9996921220320092
0.9996914445502341
0.9996907834780643
0.9996901475561597
0.9996895445173497
0.9996889811743963
0.9996884635040396
0.9996879967275948
0.9996875853869097
0.9996872334147002
0.9996869441989751
0.9996867206415527
0.9996865652109791
0.999686479990021
0.9996864667181338
0.999686526829147
0.9996866614845723
0.9996868716027788
0.999687157884417
0.9996875208343079
0.9996879607801439
0.9996884778881951
0.9996890721763372
0.9996897435245642
0.9996904916832785
0.999691316279503
0.9996922168212742
0.9996931927003531
0.9996942431934897
0.9996953674623595
0.9996965645523956
0.9996978333906216
0.9996991727826874
0.9997005814092156
0.9997020578216391
0.9997036004376325
0.9997052075363017
0.9997068772532344
0.9997086075755675
0.9997103963371556
0.9997122412140005
0.9997141397200145
0.9997160892032665
0.9997180868427858
0.9997201296460512
0.9997222144472445
0.9997243379063818
0.9997264965093933
0.9997286865692543
0.9997309042282305
0.9997331454613207
0.9997354060809585
0.9997376817430303
0.9997399679542628
0.9997422600810171
0.9997445533595236
0.9997468429075783
0.9997491237377061
0.9997513907717929
0.9997536388571717
0.9997558627841302
0.9997580573048017
0.9997602171533788
0.9997623370675898
0.9997644118113349
0.9997664361984018
0.9997684051171323
0.999770313555926
0.9997721566294229
0.9997739296052385
0.99977562793106
0.9997772472619578
0.9997787834877102
0.9997802327599806
0.9997815915191284
0.9997828565205035
0.999784024859995
0.9997850939986956
0.9997860617864658
0.9997869264842738
0.9997876867851284
0.9997883418335097
0.9997888912431522
0.9997893351131305
0.9997896740421592
0.9997899091411167
0.9997900420437594
0.9997900749157171
0.9997900104618054
0.9997898519318237
0.9997896031249537
0.999789268393013
0.9997888526427401
0.9997883613374491
0.999787800498275
0.9997871767053728
0.9997864970992812
0.9997857693827292
0.9997850018229449
0.999784203254468
0.9997833830817839
0.9997825512807128
0.999781718396779
0.9997808955398166
0.9997800943653853
0.9997793270305824
0.9997786061005168
0.999777944477099
0.9997773551968018
0.9997768511199138
0.9997764436635703
0.999776143772057
0.9997759594792937
0.9997759069824713
0.9997759937319814
0
0
0.9996975265339137
0.9996974811464007
0.9996973155586925
0.9996970431255207
0.9996966795664876
0.9996962378604877
0.9996957314418571
0.9996951735688583
0.9996945774705079
0.9996939556363869
0.9996933198282706
0.9996926809327286
0.9996920488977695
0.9996914327233766
0.999690840502578
0.9996902794698359
0.9996897560572315
0.9996892759556711
0.999688844177625
0.9996884651181335
0.9996881426127735
0.999687879992088
0.9996876801319767
0.9996875454999702
0.9996874781972571
0.9996874799966705
0.9996875523766844
0.9996876965517025
0.99968791349875
0.9996882039808827
0.9996885685674309
0.9996890076513962
0.9996895214641146
0.9996901100874909
0.9996907734639077
0.9996915114040978
0.999692323593078
0.9996932095944032
0.9996941688528431
0.9996952006957173
0.999696304332975
0.9996974788562548
0.999698723236994
0.999700036323803
0.9997014168391823
0.9997028633757746
0.99970437439223
0.9997059482088593
0.9997075830031495
0.9997092768053164
0.9997110274939535
0.9997128327919401
0.999714690262677
0.9997165973067896
0.9997185511593706
0.999720548887889
0.9997225873908338
0.9997246633972064
0.9997267734669266
0.9997289139922526
0.9997310812002712
0.9997332711565464
0.9997354797699729
0.9997377027989025
0.9997399358585792
0.9997421744299378
0.9997444138697762
0.999746649422337
0.9997488762323001
0.9997510893591806
0.999753283793123
0.9997554544720605
0.9997575963001976
0.99975970416776
0.9997617729719508
0.9997637976390127
0.9997657731473247
0.9997676945513934
0.9997695570066428
0.999771355794842
0.9997730863500439
0.9997747442848541
0.9997763254168899
0.9997778257952205
0.9997792417266432
0.9997805698015793
0.9997818069194356
0.9997829503132146
0.9997839975732337
0.9997849466697388
0.999785795974296
0.9997865442797652
0.9997871908187769
0.999787735280544
0.9997881778259738
0.9997885191009618
0.9997887602478837
0.999788902915223
0.9997889492654128
0.9997889019808888
0.999788764268505
0.9997885398623604
0.9997882330252543
0.9997878485488677
0.9997873917529214
0.9997868684834245
0.9997862851102483
0.9997856485240743
0.9997849661328021
0.9997842458571881
0.9997834961254458
0.9997827258661149
0.9997819444980585
0.9997811619143473
0.9997803884573128
0.999779634882008
0.9997789123081459
0.999778232121401
0.9997776058326215
0.9997770448693285
0.9997765605469336
0.9997761633932732
0.9997758636690611
0.9997756705862392
0.9997755986275768
0.9997756588828923
0
0
0.9996980930130906
0.9996979747992626
0.9996977599588536
0.9996974576043037
0.9996970787072011
0.9996966346541902
0.9996961368909348
0.9996955966529253
0.9996950250008432
0.9996944326831684
0.9996938299750849
0.9996932264802282
0.9996926310791302
0.9996920519113556
0.9996914963757445
0.9996909711479572
0.9996904822155751
0.9996900349208471
0.9996896340064001
0.9996892836620581
0.9996889875712736
0.9996887489560035
0.9996885706190982
0.999688454983914
0.9996884041307931
0.9996884198304457
0.9996885035740922
0.9996886566005543
0.999688879920274
0.9996891743365172
0.9996895404637847
0.9996899787437153
0.9996904894585246
0.9996910727422658
0.9996917285899641
0.9996924568649024
0.9996932573041123
0.9996941295223368
0.9996950730145124
0.9996960871570304
0.9996971712078158
0.9996983243054708
0.9996995454675244
0.999700833588012
0.9997021874344311
0.9997036056442834
0.9997050867212441
0.9997066290311579
0.9997082307979009
0.9997098900993021
0.9997116048631525
0.9997133728634882
0.9997151917171802
0.999717058880995
0.9997189716491692
0.9997209271516432
0.999722922352991
0.9997249540521917
0.9997270188832674
0.9997291133169149
0.9997312336631627
0.9997333760751581
0.9997355365541083
0.9997377109554603
0.9997398949963413
0.9997420842643192
0.999744274227488
0.9997464602459208
0.9997486375844803
0.9997508014269934
0.9997529468917694
0.9997550690484441
0.9997571629360956
0.9997592235825887
0.9997612460250808
0.9997632253315952
0.9997651566235902
0.9997670350993872
0.9997688560583665
0.9997706149257647
0.9997723072779633
0.9997739288680766
0.9997754756517095
0.9997769438126753
0.9997783297885362
0.9997796302957411
0.9997808423542216
0.9997819633112194
0.9997829908642133
0.9997839230827248
0.9997847584288908
0.9997854957765968
0.9997861344290974
0.9997866741349375
0.9997871151021481
0.9997874580105662
0.9997877040223045
0.9997878547902687
0.9997879124647998
0.9997878796983904
0.9997877596486124
0.9997875559792452
0.9997872728597852
0.9997869149633608
0.9997864874632411
0.9997859960279445
0.9997854468151001
0.9997848464639457
0.9997842020864711
0.9997835212568323
0.9997828119985505
0.9997820827684295
0.9997813424363294
0.9997806002591177
0.9997798658453295
0.9997791491026039
0.9997784601715985
0.9997778093459233
0.9997772069736517
0.9997766632385954
0.9997761880569279
0.9997757909825824
0.9997754817785623
0.9997752699212227
0.9997751659562334
0.9997751787923222
0
0
0.9996987594437671
0.9996985598292591
0.9996982850964032
0.999697941028945
0.9996975358272248
0.9996970784547241
0.9996965781667072
0.9996960443457324
0.9996954863510394
0.9996949133721306
0.9996943342462873
0.99969375735386
0.9996931905506785
0.9996926411134791
0.9996921157191777
0.9996916204488767
0.9996911608049077
0.9996907417358964
0.9996903676679624
0.9996900425395332
0.9996897698373092
0.9996895526321502
0.9996893936138564
0.999689295124385
0.9996892591888985
0.9996892875445714
0.9996893816668416
0.9996895427932377
0.9996897719446236
0.9996900699440857
0.99969043743338
0.9996908748872105
0.9996913826253041
0.9996919608225588
0.9996926095172625
0.9996933286176526
0.9996941179068285
0.9996949770462816
0.9996959055780535
0.9996969029257894
0.999697968394683
0.9996991011705824
0.9997003003182496
0.9997015647790262
0.9997028933679023
0.9997042847702331
0.999705737538095
0.9997072500865091
0.9997088206895395
0.9997104474764684
0.9997121284280642
0.999713861373128
0.9997156439853371
0.999717473780564
0.9997193481146832
0.9997212641820348
0.9997232190145559
0.9997252094817377
0.9997272322914175
0.9997292839915457
0.9997313609729386
0.9997334594731371
0.9997355755813786
0.9997377052447806
0.9997398442757429
0.999741988360637
0.999744133069779
0.9997462738687413
0.9997484061309739
0.999750525151765
0.9997526261635034
0.9997547043522316
0.9997567548754436
0.9997587728810754
0.9997607535276254
0.9997626920053224
0.999764583558253
0.9997664235073314
0.9997682072740087
0.9997699304045709
0.9997715885948995
0.9997731777155211
0.9997746938368082
0.9997761332541235
0.9997774925127753
0.9997787684325524
0.9997799581317043
0.9997810590501331
0.9997820689716742
0.9997829860452243
0.9997838088046216
0.9997845361870517
0.9997851675499051
0.9997857026858937
0.9997861418363854
0.9997864857027986
0.9997867354560644
0.9997868927440374
0.9997869596969108
0.9997869389305589
0.9997868335479132
0.9997866471383202
0.9997863837750269
0.9997860480107518
0.9997856448714856
0.9997851798484424
0.9997846588882567
0.9997840883812114
0.9997834751474018
0.9997828264203796
0.9997821498279008
0.9997814533687422
0.9997807453842072
0.9997800345225711
0.9997793296962479
0.99977864002804
0.9997779747798556
0.9997773432588253
0.9997767547328136
0.9997762183289864
0.9997757429425884
0.9997753371452964
0.9997750094194582
0.9997747681146533
0.9997746215904082
0.9997745759249437
0
0
0.9996995007549163
0.9996992150511346
0.9996988730681207
0.9996984788869235
0.9996980384504001
0.9996975584263115
0.9996970461678611
0.999696509383667
0.9996959558749966
0.9996953933783219
0.9996948294380217
0.9996942713071668
0.9996937258528769
0.9996931994998322
0.9996926982027602
0.9996922274346577
0.9996917921879757
0.9996913969871698
0.9996910459085326
0.999690742604392
0.99969049032968
0.9996902919697894
0.9996901500684056
0.9996900668547335
0.9996900442693746
0.9996900839887084
0.9996901874473416
0.9996903558586929
0.9996905902334496
0.9996908913960859
0.9996912599992809
0.9996916965364889
0.9996922013525517
0.9996927746526366
0.9996934165094257
0.9996941268688441
0.9996949055542738
0.9996957522695411
0.9996966666006339
0.9996976480164301
0.9996986958683965
0.9996998093895418
0.9997009876925727
0.9997022297675319
0.9997035344788763
0.9997049005622497
0.9997063266209238
0.9997078111221437
0.9997093523933496
0.9997109486185147
0.9997125978345586
0.9997142979280679
0.9997160466322914
0.9997178415246251
0.9997196800245587
0.9997215593922812
0.9997234767279285
0.9997254289716455
0.9997274129044562
0.9997294251500923
0.9997314621777765
0.9997335203060915
0.9997355957079295
0.9997376844166336
0.9997397823333171
0.9997418852354557
0.9997439887867263
0.999746088548158
0.9997481799905701
0.9997502585083182
0.9997523194343213
0.9997543580563588
0.9997563696345798
0.9997583494202004
0.9997602926753
0.9997621946936539
0.99976405082251
0.9997658564851928
0.9997676072044341
0.9997692986262819
0.9997709265444626
0.9997724869250157
0.9997739759310768
0.9997753899475879
0.9997767256058092
0.9997779798073922
0.9997791497478926
0.9997802329394628
0.999781227232619
0.9997821308368247
0.9997829423397956
0.9997836607252851
0.9997842853892801
0.9997848161543901
0.9997852532823915
0.9997855974847448
0.9997858499310888
0.9997860122555541
0.9997860865609648
0.9997860754207879
0.9997859818789429
0.9997858094473618
0.9997855621014344
0.9997852442732265
0.9997848608426
0.9997844171260802
0.9997839188635328
0.9997833722023772
0.9997827836792447
0.9997821601985336
0.9997815090074423
0.9997808376667066
0.9997801540163153
0.9997794661341993
0.999778782286244
0.9997781108678343
0.999777460338326
0.9997768391388562
0.9997762555968818
0.9997757178454993
0.9997752337844914
0.9997748110165203
0.9997744567673879
0.9997741777276711
0.9997739805266384
0.999773869693109
0
0
0.9997002953137522
0.999699920628364
0.9996995067865206
0.9996990566207862
0.9996985739858375
0.9996980638377565
0.9996975318950547
0.9996969843161453
0.9996964274831867
0.9996958678449083
0.9996953117797136
0.9996947654843076
0.9996942348892289
0.9996937256035009
0.9996932428747762
0.9996927915667334
0.9996923761514691
0.9996920007124735
0.999691668954588
0.9996913842193469
0.9996911495037231
0.999690967480988
0.9996908405222931
0.9996907707184282
0.9996907599009113
0.9996908096622164
0.9996909213745869
0.9996910962074803
0.999691335143289
0.9996916389915047
0.9996920084010914
0.9996924438713087
0.9996929457608055
0.9996935142952829
0.999694149573574
0.9996948515724575
0.9996956201500826
0.9996964550483215
0.9996973558939448
0.9996983221989323
0.9996993533598257
0.9997004486564222
0.9997016072497346
0.9997028281794983
0.9997041103611528
0.9997054525825814
0.9997068535005297
0.9997083116369769
0.9997098253753887
0.9997113929571144
0.9997130124778592
0.9997146818844795
0.9997163989720461
0.9997181613813998
0.9997199665971584
0.9997218119463768
0.9997236945978317
0.9997256115621164
0.9997275596925117
0.9997295356868128
0.9997315360900773
0.9997335572984525
0.9997355955640467
0.9997376470009869
0.9997397075926195
0.9997417731999765
0.9997438395714537
0.9997459023538007
0.9997479571043593
0.9997499993046167
0.999752024375004
0.9997540276909668
0.9997560046002308
0.999757950441246
0.999759860562724
0.9997617303442057
0.9997635552175619
0.9997653306893284
0.999767052363753
0.9997687159664251
0.999770317368351
0.9997718526103023
0.9997733179273011
0.9997747097730324
0.9997760248440432
0.9997772601034962
0.9997784128043377
0.9997794805116351
0.9997804611239517
0.9997813528935142
0.9997821544450531
0.9997828647930791
0.9997834833575123
0.9997840099774277
0.9997844449228878
0.9997847889046387
0.9997850430816825
0.9997852090665409
0.9997852889282561
0.9997852851929763
0.9997852008422089
0.9997850393086084
0.999784804469405
0.9997845006373274
0.9997841325491282
0.9997837053515168
0.9997832245845437
0.9997826961621261
0.9997821263496378
0.9997815217380772
0.9997808892144648
0.9997802359275849
0.9997795692486007
0.9997788967258594
0.9997782260326644
0.9997775649057068
0.9997769210761187
0.999776302197481
0.9997757157669308
0.9997751690386342
0.9997746689485952
0.999774222055491
0.9997738344612014
0.9997735115119758
0.9997732579866372
0.9997730773275944
0
0
0.999701123728038
0.9997006590529313
0.999700170713121
0.9996996604101995
0.9996991304013927
0.9996985843101365
0.999698026418866
0.9996974615446684
0.9996968948227981
0.9996963315463788
0.999695777026163
0.9996952364879539
0.999694714992747
0.9996942173750968
0.9996937481986401
0.9996933117292753
0.9996929119204777
0.9996925524083109
0.9996922365140276
0.9996919672525553
0.9996917473446808
0.9996915792318796
0.9996914650924578
0.9996914068584734
0.99969140623249
0.9996914647039771
0.9996915835647273
0.9996917639233311
0.9996920067182662
0.9996923127297762
0.9996926825902254
0.9996931167931756
0.9996936157009493
0.9996941795509723
0.9996948084607011
0.9996955024314609
0.9996962613510144
0.9996970849952049
0.9996979730285149
0.9996989250038745
0.9996999403615807
0.9997010184276552
0.9997021584115068
0.9997033594032284
0.9997046203703888
0.9997059401546473
0.9997073174680637
0.9997087508894028
0.999710238860331
0.9997117796817836
0.9997133715104076
0.9997150123553503
0.9997167000753
0.9997184323760355
0.9997202068084069
0.9997220207669822
0.9997238714892858
0.9997257560558573
0.9997276713910566
0.9997296142648265
0.9997315812953455
0.9997335689527593
0.9997355735639295
0.9997375913183633
0.9997396182752635
0.9997416503718377
0.9997436834328044
0.9997457131812011
0.9997477352504301
0.9997497451976185
0.9997517385182082
0.9997537106618274
0.9997556570493433
0.9997575730911069
0.9997594542062779
0.9997612958432004
0.9997630935007016
0.9997648427502387
0.9997665392587596
0.9997681788121509
0.9997697573391378
0.9997712709354574
0.9997727158881695
0.9997740886998936
0.9997753861128217
0.9997766051322787
0.9997777430496785
0.9997787974646293
0.9997797663060426
0.9997806478520004
0.9997814407482503
0.9997821440250735
0.9997827571124485
0.9997832798532451
0.9997837125144209
0.9997840557959686
0.9997843108376314
0.9997844792231634
0.9997845629821849
0.9997845645894448
0.9997844869615696
0.9997843334511293
0.9997841078381243
0.9997838143187107
0.9997834574912684
0.999783042339587
0.9997825742132322
0.999782058804762
0.9997815021237522
0.9997809104671451
0.9997802903857695
0.9997796486463592
0.9997789921885305
0.9997783280759659
0.9997776634420468
0.999777005429207
0.99977636112028
0.9997757374643799
0.999775141202321
0.9997745787893675
0.999774056300455
0.9997735793284506
0.9997731529008046
0.9997727813214726
0.9997724678246601
0.9997722148216236
0
0
0.9997019689960428
0.9997014146735358
0.9997008505272613
0.9997002773551074
0.9996996962795434
0.9996991097880694
0.9996985209645501
0.9996979334968698
0.9996973514245183
0.9996967790068295
0.9996962205929606
0.9996956805254277
0.9996951630589905
0.9996946722994576
0.9996942121592324
0.999693786326656
0.9996933982461312
0.9996930511081108
0.9996927478463703
0.9996924911409703
0.9996922834250885
0.9996921268949
0.9996920235211056
0.9996919750616398
0.9996919830745726
0.9996920489310664
0.999692173827683
0.9996923587980995
0.9996926047237152
0.9996929123433574
0.9996932822616734
0.999693714956509
0.9996942107849398
0.9996947699882984
0.999695392695917
0.999696078927958
0.9996968285970789
0.9996976415093128
0.9996985173639473
0.9996994557527679
0.9997004561584695
0.9997015179526079
0.999702640392889
0.999703822620175
0.9997050636550103
0.9997063623940298
0.9997077176060759
0.9997091279283624
0.9997105918625246
0.9997121077708845
0.9997136738727779
0.9997152882412604
0.9997169488000431
0.9997186533209662
0.9997203994218737
0.999722184565175
0.999724006056967
0.999725861046994
0.9997277465293193
0.9997296593439664
0.9997315961794186
0.9997335535762109
0.9997355279315027
0.9997375155048481
0.9997395124250583
0.9997415146983324
0.9997435182175648
0.9997455187729709
0.9997475120639314
0.9997494937121654
0.9997514592761308
0.9997534042667167
0.9997553241641197
0.9997572144359284
0.9997590705562932
0.9997608880261669
0.9997626623944728
0.9997643892801453
0.9997660643948876
0.9997676835665381
0.9997692427628907
0.9997707381158073
0.9997721659454627
0.9997735227845256
0.9997748054021056
0.9997760108272444
0.99977713637178
0.9997781796523405
0.9997791386113145
0.9997800115365275
0.9997807970795054
0.9997814942720471
0.999782102541015
0.9997826217210789
0.9997830520653566
0.9997833942536993
0.9997836493986189
0.9997838190486169
0.9997839051889638
0.999783910239702
0.9997838370509686
0.9997836888954211
0.9997834694578891
0.9997831828220314
0.9997828334541204
0.999782426183709
0.9997819661812595
0.9997814589324243
0.9997809102089992
0.9997803260360953
0.9997797126554363
0.9997790764842849
0.999778424069883
0.9997777620386147
0.99977709703964
0.9997764356834418
0.9997757844754179
0.9997751497432579
0.9997745375576972
0.9997739536530891
0.9997734033357691
0.9997728913819686
0.9997724218783014
0.999771998217716
0.9997716225229804
0.9997712963323871
0
0
0.9997028162981053
0.9997021735056951
0.9997015332214145
0.9997008955925398
0.9997002608904734
0.9996996306629735
0.9996990070257399
0.9996983927019352
0.9996977907771278
0.9996972046006098
0.9996966376617411
0.9996960934999544
0.9996955756277468
0.9996950874728537
0.9996946323333353
0.9996942133449714
0.9996938334590183
0.9996934954288891
0.9996932018033874
0.9996929549255233
0.9996927569352403
0.9996926097752884
0.9996925151988972
0.9996924747788962
0.999692489917278
0.9996925618551148
0.9996926916820584
0.9996928803455445
0.9996931286591009
0.999693437310005
0.9996938068658225
0.9996942377801399
0.9996947303971079
0.9996952849551646
0.9996959015895971
0.9996965803343445
0.999697321122733
0.9996981237875604
0.9996989880602432
0.9996999135694516
0.9997008998389515
0.9997019462850902
0.9997030522136493
0.9997042168164932
0.999705439167756
0.9997067182199788
0.9997080527999589
0.9997094416046971
0.999710883197232
0.9997123760027281
0.9997139183046141
0.9997155082411316
0.9997171438020975
0.9997188228262262
0.9997205429988322
0.9997223018502376
0.9997240967547159
0.9997259249302836
0.9997277834391866
0.9997296691893581
0.9997315789367184
0.9997335092885734
0.9997354567079765
0.9997374175192967
0.9997393879148629
0.9997413639628939
0.9997433416165884
0.9997453167245548
0.9997472850424546
0.9997492422459919
0.9997511839451376
0.9997531056996656
0.9997550030358804
0.9997568714645839
0.9997587065001377
0.9997605036806236
0.9997622585889508
0.9997639668748599
0.9997656242776629
0.9997672266496145
0.999768769979753
0.9997702504180492
0.9997716642996981
0.9997730081693526
0.99977427880512
0.9997754732421006
0.999776588795282
0.9997776230815386
0.9997785740405771
0.999779439954543
0.9997802194661626
0.999780911595125
0.9997815157526122
0.9997820317536807
0.9997824598274485
0.9997828006248045
0.9997830552236339
0.9997832251313016
0.9997833122844353
0.9997833190457617
0.999783248198094
0.9997831029352295
0.999782886849891
0.9997826039184718
0.9997822584827314
0.9997818552281754
0.9997813991592609
0.9997808955711033
0.9997803500177812
0.9997797682768672
0.9997791563101974
0.9997785202203956
0.999777866203194
0.9997772004952222
0.9997765293170732
0.9997758588111949
0.9997751949752023
0.9997745435912567
0.9997739101475558
0.9997732997554571
0.9997727170517264
0.9997721661207036
0.9997716502970811
0.9997711722056862
0.9997707331581271
0.9997703340590142
0
0
0.9997036526404056
0.9997029230628206
0.9997022070251751
0.9997015042006011
0.9997008142016033
0.9997001378327229