# vtk DataFile Version 2.0
2D-ADE data file 
ASCII
DATASET RECTILINEAR_GRID
DIMENSIONS 128 128 1 
X_COORDINATES 128 int
0 1 2 3 4 5 6 7 8 9 10 11 12 13 14 15 16 17 18 19 20 21 22 23 24 25 26 27 28 29 30 31 32 33 34 35 36 37 38 39 40 41 42 43 44 45 46 47 48 49 50 51 52 53 54 55 56 57 58 59 60 61 62 63 64 65 66 67 68 69 70 71 72 73 74 75 76 77 78 79 80 81 82 83 84 85 86 87 88 89 90 91 92 93 94 95 96 97 98 99 100 101 102 103 104 105 106 107 108 109 110 111 112 113 114 115 116 117 118 119 120 121 122 123 124 125 126 127 
Y_COORDINATES 128 int
0 1 2 3 4 5 6 7 8 9 10 11 12 13 14 15 16 17 18 19 20 21 22 23 24 25 26 27 28 29 30 31 32 33 34 35 36 37 38 39 40 41 42 43 44 45 46 47 48 49 50 51 52 53 54 55 56 57 58 59 60 61 62 63 64 65 66 67 68 69 70 71 72 73 74 75 76 77 78 79 80 81 82 83 84 85 86 87 88 89 90 91 92 93 94 95 96 97 98 99 100 101 102 103 104 105 106 107 108 109 110 111 112 113 114 115 116 117 118 119 120 121 122 123 124 125 126 127 
Z_COORDINATES 1 int
0
POINT_DATA 16384
SCALARS density double
LOOKUP_TABLE default
0
0
0
0
0
0
0
0
0
0
0
0
0
0
0
0
0
0
0
0
0
0
0
0
0
0
0
0
0
0
0
0
0
0
0
0
0
0
0
0
0
0
0
0
0
0
0
0
0
0
0
0
0
0
0
0
0
0
0
0
0
0
0
0
0
0
0
0
0
0
0
0
0
0
0
0
0
0
0
0
0
0
0
0
0
0
0
0
0
0
0
0
0
0
0
0
0
0
0
0
0
0
0
0
0
0
0
0
0
0
0
0
0
0
0
0
0
0
0
0
0
0
0
0
0
0
0
0
0
0.9997080232334099
0.9997080955638675
0.9997080280314495
0.9997077849384184
0.9997073881748872
0.9997068744803935
0.9997062740642183
0.9997056123934214
0.9997049119164206
0.9997041922698474
0.9997034701860873
0.9997027598343704
0.9997020731865729
0.9997014203172234
0.9997008096504076
0.9997002481801939
0.999699741663121
0.9996992947840534
0.9996989112991891
0.9996985941603402
0.9996983456234166
0.9996981673434905
0.9996980604583806
0.9996980256623504
0.9996980632711929
0.9996981732797376
0.999698355412639
0.9996986091691525
0.9996989338625033
0.9996993286543574
0.999699792584842
0.9997003245985022
0.9997009235665373
0.9997015883056228
0.9997023175935985
0.9997031101822769
0.9997039648075958
0.9997048801973423
0.9997058550766378
0.9997068881713809
0.9997079782098168
0.9997091239224127
0.9997103240401886
0.9997115772916678
0.9997128823985918
0.9997142380705474
0.9997156429986415
0.9997170958483678
0.9997185952517987
0.999720139799232
0.9997217280304282
0.9997233584255623
0.9997250293960235
0.9997267392751829
0.9997284863092576
0.9997302686483928
0.9997320843380837
0.999733931311055
0.9997358073797159
0.9997377102293042
0.9997396374118319
0.9997415863409375
0.9997435542877474
0.9997455383778482
0.9997475355894572
0.9997495427528768
0.9997515565513152
0.9997535735231367
0.9997555900656069
0.9997576024401784
0.9997596067793597
0.9997615990951917
0.999763575289351
0.9997655311648719
0.9997674624394876
0.9997693647605496
0.9997712337214947
0.9997730648797971
0.9997748537763343
0.9997765959560823
0.999778286990039
0.999779922498262
0.9997814981738953
0.9997830098080434
0.9997844533153526
0.9997858247601399
0.9997871203829088
0.9997883366270895
0.9997894701658423
0.9997905179287538
0.9997914771282834
0.9997923452858009
0.9997931202570942
0.9997938002572258
0.9997943838846489
0.9997948701445188
0.9997952584711676
0.9997955487497512
0.9997957413371182
0.9997958370820054
0.9997958373447263
0.9997957440165864
0.9997955595393434
0.999795286925119
0.9997949297772868
0.9997944923129894
0.9997939793880812
0.9997933965254844
0.9997927499481503
0.9997920466180722
0.9997912942830685
0.999790501533319
0.999789677869881
0.9997888337882082
0.9997879808788818
0.9997871319456947
0.9997863011339028
0.999785504087357
0.9997847581325902
0.9997840824377123
0.9997834976434291
0.999783025597491
0.9997826899289087
0.9997825182761295
0.9997825195049806
0.9997826397516176
0
0
0.9997080344632536
0.9997080840950131
0.9997080051352084
0.9997077836614886
0.9997074423664255
0.9997069983761329
0.9997064749291956
0.999705893939938
0.9997052753499988
0.9997046365369366
0.9997039927492036
0.9997033572082827
0.9997027412750954
0.9997021546309317
0.9997016054745901
0.9997011006979645
0.9997006460434394
0.9997002462443584
0.999699905150439
0.9996996258390004
0.9996994107135772
0.9996992615914723
0.9996991797815693
0.9996991661535567
0.9996992211995073
0.999699345088646
0.9996995377159859
0.9996997987454448
0.9997001276479335
0.9997005237348789
0.9997009861875575
0.9997015140825937
0.9997021064139294
0.9997027621115475
0.9997034800571927
0.9997042590973408
0.9997050980536125
0.9997059957308502
0.9997069509230313
0.999707962417205
0.9997090289956205
0.9997101494361968
0.9997113225115026
0.9997125469863847
0.999713821614388
0.9997151451331147
0.9997165162586465
0.999717933679177
0.9997193960479696
0.9997209019757796
0.9997224500228667
0.9997240386907169
0.9997256664136003
0.9997273315500897
0.9997290323746536
0.9997307670694519
0.9997325337164369
0.9997343302898931
0.9997361546495108
0.9997380045341153
0.999739877556152
0.999741771197034
0.9997436828034462
0.9997456095847067
0.9997475486112622
0.9997494968144153
0.9997514509873319
0.9997534077874275
0.9997553637401585
0.9997573152442844
0.9997592585786306
0.9997611899103771
0.9997631053048882
0.9997650007370797
0.9997668721043155
0.9997687152408004
0.9997705259334366
0.9997722999390801
0.9997740330031365
0.9997757208794078
0.9997773593510975
0.9997789442528612
0.999780471493792
0.9997819370811983
0.9997833371450436
0.9997846679628977
0.9997859259852493
0.9997871078610235
0.9997882104631541
0.9997892309140497
0.9997901666108214
0.9997910152501195
0.9997917748524675
0.9997924437859775
0.9997930207893679
0.9997935049942116
0.9997938959463956
0.9997941936267859
0.9997943984711463
0.9997945113894009
0.9997945337843835
0.999794467570275
0.9997943151910114
0.9997940796389915
0.999793764474547
0.9997933738466817
0.9997929125157464
0.9997923858787847
0.9997917999984535
0.9997911616364887
0.9997904782928603
0.9997897582517387
0.9997890106353446
0.9997882454657308
0.9997874737349203
0.9997867074822552
0.9997859598791937
0.9997852452837082
0.999784579254714
0.999783978461684
0.9997834608266889
0.9997830447163161
0.9997827478096442
0.9997825796923391
0.9997825495663535
0.9997826322365455
0
0
0.9997081695184757
0.9997082059893967
0.9997081192096129
0.9997079115773547
0.9997076018657683
0.99970720297118
0.9997067347018334
0.9997062150220668
0.9997056607894865
0.9997050872649497
0.9997045082036817
0.9997039357017956
0.9997033802999709
0.9997028511078869
0.9997023559393314
0.9997019014373096
0.9997014931976391
0.9997011358848629
0.9997008333386457
0.9997005886702466
0.9997004043498444
0.9997002822853627
0.9997002238934433
0.9997002301632644
0.9997003017138152
0.9997004388452422
0.9997006415847451
0.9997009097275174
0.999701242873108
0.9997016404575928
0.9997021017818674
0.9997026260363698
0.9997032123224898
0.9997038596709249
0.9997045670571952
0.999705333414544
0.9997061576444014
0.9997070386246195
0.9997079752156248
0.9997089662646838
0.9997100106084079
0.9997111070736816
0.999712254477125
0.9997134516232647
0.9997146973015211
0.9997159902821663
0.9997173293113685
0.9997187131054618
0.9997201403445548
0.9997216096656146
0.9997231196551357
0.9997246688415249
0.9997262556873134
0.9997278785813193
0.999729535830873
0.9997312256542201
0.9997329461732201
0.999734695406444
0.9997364712627862
0.9997382715356915
0.9997400938981043
0.9997419358982355
0.9997437949562422
0.9997456683619145
0.9997475532734452
0.9997494467173711
0.9997513455897431
0.9997532466586024
0.9997551465678045
0.9997570418422443
0.9997589288945129
0.9997608040330064
0.9997626634715077
0.9997645033402308
0.9997663196983223
0.9997681085477844
0.9997698658487968
0.9997715875363611
0.9997732695382228
0.999774907793979
0.9997764982752827
0.9997780370070405
0.99977952008949
0.9997809437210254
0.9997823042216486
0.9997835980568932
0.999784821862088
0.9997859724668033
0.9997870469193392
0.9997880425111015
0.9997889568007386
0.9997897876378903
0.9997905331864455
0.9997911919471894
0.9997917627797682
0.9997922449238927
0.9997926380197617
0.9997929421276823
0.9997931577469369
0.999793285833947
0.9997933278198678
0.999793285627764
0.9997931616895982
0.9997929589633016
0.9997926809502784
0.9997923317137395
0.9997919158983534
0.9997914387517299
0.9997909061483383
0.9997903246164134
0.9997897013683865
0.9997890443351711
0.9997883622047018
0.9997876644637402
0.9997869614403552
0.9997862643394484
0.9997855852771041
0.999784937293636
0.9997843343307384
0.9997837909300752
0.9997833221046427
0.9997829427572175
0.9997826682143071
0.9997825054679172
0.9997824627754471
0.999782536103028
0
0
0.9997084553067725
0.9997084695143807
0.9997083646312636
0.9997081526528369
0.9997078533848021
0.9997074802736976
0.9997070485232941
0.9997065724487072
0.999706066484918
0.9997055439709082
0.9997050170159651
0.9997044964445168
0.9997039918605752
0.9997035116787634
0.99970306319699
0.9997026526857865
0.9997022854825699
0.9997019660819908
0.9997016982222674
0.9997014849664356
0.9997013287777692
0.9997012315891063
0.999701194866227
0.9997012196655908
0.9997013066867156
0.9997014563195644
0.9997016686872282
0.999701943684264
0.9997022810109474
0.9997026802037542
0.9997031406622976
0.9997036616729921
0.9997042424296405
0.999704882051187
0.9997055795967942
0.9997063340784728
0.9997071444713987
0.9997080097221187
0.9997089287547759
0.9997099004755299
0.9997109237752942
0.9997119975309599
0.99971312060521
0.999714291845089
0.9997155100794265
0.99971677411527
0.9997180827334246
0.9997194346832453
0.9997208286767776
0.9997222633823911
0.9997237374179997
0.9997252493440014
0.9997267976560402
0.9997283807777145
0.9997299970533335
0.9997316447408419
0.999733322005013
0.9997350269110282
0.999736757418534
0.9997385113762938
0.9997402865175199
0.9997420804559923
0.9997438906830496
0.9997457145655394
0.9997475493448122
0.9997493921368314
0.999751239933464
0.999753089605026
0.999754937904113
0.9997567814707816
0.999758616839097
0.9997604404450781
0.9997622486360513
0.9997640376814058
0.9997658037847474
0.9997675430974127
0.9997692517333193
0.9997709257850877
0.999772561341381
0.9997741545053759
0.9997757014142834
0.9997771982598143
0.9997786413094838
0.9997800269286203
0.999781351602969
0.9997826119617369
0.999783804800952
0.9997849271069809
0.9997859760800745
0.9997869491577853
0.9997878440381341
0.9997886587023804
0.9997893914372964
0.9997900408568146
0.9997906059229869
0.9997910859661625
0.9997914807043595
0.9997917902617952
0.9997920151866023
0.9997921564677646
0.9997922155513645
0.9997921943562548
0.999792095289331
0.9997919212605874
0.9997916756982289
0.9997913625640914
0.9997909863697056
0.9997905521932906
0.999790065697994
0.9997895331516016
0.9997889614478463
0.9997883581289094
0.9997877314082627
0.9997870901923877
0.9997864441009959
0.999785803477054
0.9997851793741429
0.999784583494002
0.9997840281485008
0.9997835261174193
0.9997830904218037
0.9997827329865357
0.9997824654733481
0.9997822973412906
0.9997822447709973
0.9997823148010794
0
0
0.9997088944287461
0.9997088541276372
0.9997087135726195
0.9997084850404103
0.9997081832848478
0.9997078204703147
0.9997074092009121
0.9997069617840733
0.9997064903477668
0.999706006215366
0.999705519914259
0.99970504103907
0.9997045782029553
0.9997041390362142
0.9997037302327684
0.9997033576053922
0.9997030261486947
0.9997027401064107
0.9997025030399038
0.9997023178947131
0.9997021870638915
0.9997021124476059
0.9997020955086585
0.9997021373238238
0.9997022386309851
0.9997023998722149
0.999702621232922
0.9997029026772782
0.9997032439800775
0.9997036447552542
0.9997041044812172
0.999704622523219
0.9997051981529054
0.9997058305652491
0.9997065188930053
0.9997072622188817
0.9997080595855313
0.9997089100035723
0.9997098124577171
0.999710765911206
0.9997117693086285
0.9997128215773053
0.9997139216273204
0.9997150683503608
0.9997162606174558
0.999717497275761
0.9997187771444789
0.9997200990100604
0.99972146162077
0.9997228636807605
0.9997243038437412
0.9997257807063726
0.9997272928014788
0.9997288385912093
0.999730416460232
0.9997320247090905
0.9997336615478072
0.9997353250898579
0.9997370133466003
0.9997387242222711
0.9997404555096325
0.9997422048863777
0.9997439699123692
0.9997457480278034
0.9997475365523757
0.9997493326855202
0.9997511335077909
0.9997529359834437
0.9997547369642643
0.9997565331946937
0.9997583213182717
0.9997600978854313
0.9997618593626446
0.9997636021429297
0.9997653225576947
0.9997670168899047
0.999768681388528
0.9997703122842123
0.9997719058061292
0.9997734581999111
0.9997749657465961
0.9997764247824751
0.9997778317197458
0.9997791830678362
0.9997804754552934
0.9997817056520841
0.9997828705921816
0.999783967396294
0.9997849933945918
0.9997859461492897
0.9997868234769592
0.999787623470419
0.9997883445201083
0.999788985334807
0.9997895449616325
0.9997900228052143
0.999790418646008
0.9997907326576978
0.9997909654236962
0.9997911179527389
0.9997911916936478
0.9997911885493077
0.9997911108899973
0.9997909615661666
0.999790743920854
0.9997904618018604
0.9997901195738863
0.9997897221307205
0.9997892749075763
0.9997887838934364
0.9997882556431971
0.9997876972890573
0.999787116550112
0.9997865217370346
0.9997859217489282
0.9997853260593196
0.9997847446922055
0.9997841881502482
0.9997836672935259
0.9997831931380559
0.9997827768588283
0.9997824291825423
0.9997821605033105
0.9997819801656237
0.9997819024985822
0.9997819381185796
0
0
0.9997094556521593
0.9997093435946329
0.9997091541764936
0.9997088957796388
0.9997085784437966
0.9997082126503897
0.9997078089382733
0.9997073775810786
0.9997069285949196
0.99970647160152
0.9997060156795968
0.999705569188382
0.9997051397206809
0.9997047340897198
0.9997043583369669
0.9997040177566384
0.9997037169367119
0.9997034598075444
0.999703249693509
0.9997030893654735
0.9997029810927273
0.9997029266932045
0.9997029275811997
0.999702984812228
0.9997030991247843
0.9997032709789578
0.9997035005918486
0.9997037879698942
0.9997041329381265
0.9997045351665373
0.9997049941936162
0.9997055094472378
0.9997060802629923
0.9997067059001372
0.9997073855552567
0.9997081183738126
0.9997089034596695
0.9997097398827692
0.9997106266850329
0.9997115628846633
0.9997125474789216
0.9997135794455408
0.9997146577428495
0.9997157813087679
0.9997169490587394
0.9997181598827596
0.9997194126415656
0.9997207061621404
0.9997220392326002
0.9997234105966085
0.999724818947393
0.9997262629215028
0.9997277410923747
0.9997292519638606
0.9997307939637672
0.9997323654375628
0.9997339646423086
0.9997355897409506
0.9997372387970427
0.9997389097700198
0.9997406005110925
0.9997423087598801
0.9997440321418328
0.9997457681665681
0.9997475142271571
0.9997492676004602
0.9997510254485636
0.9997527848213814
0.999754542660461
0.9997562958040505
0.9997580409934431
0.9997597748806296
0.9997614940372679
0.9997631949649662
0.9997648741068705
0.9997665278605331
0.999768152592022
0.9997697446512257
0.9997713003882895
0.9997728161711116
0.9997742884038108
0.9997757135460708
0.9997770881332563
0.9997784087971743
0.9997796722873717
0.9997808754928161
0.9997820154638464
0.9997830894342259
0.9997840948431812
0.9997850293572631
0.9997858908919076
0.9997866776325474
0.9997873880551655
0.9997880209461548
0.9997885754214011
0.9997890509444832
0.9997894473439342
0.9997897648294939
0.9997900040073472
0.9997901658943043
0.9997902519309718
0.99979026399391
0.9997902044068621
0.999790075951079
0.9997898818748557
0.9997896259022808
0.9997893122412868
0.9997889455909257
0.9997885311478099
0.9997880746114063
0.9997875821876626
0.9997870605899304
0.9997865170362209
0.9997859592410804
0.9997853953984519
0.9997848341470914
0.9997842845201983
0.9997837558801117
0.9997832578348561
0.999782800025235
0.999782391970298
0.9997820429969767
0.9997817626673458
0.9997815600954223
0.9997814450948125
0.99978142605763
0
0
0.9997101086083918
0.9997099168203623
0.9997096686238456
0.9997093691827241
0.9997090257542341
0.9997086464221613
0.9997082395102289
0.9997078134469515
0.9997073765667487
0.9997069369642744
0.999706502325796
0.9997060798307752
0.9997056760881935
0.999705297090191
0.9997049481977321
0.999704634149937
0.9997043590869734
0.9997041265811282
0.999703939673816
0.9997038009159817
0.9997037124096497
0.9997036758492762
0.9997036925619837
0.999703763546143
0.9997038895078301
0.9997040708949644
0.9997043079289414
0.9997046006337572
0.9997049488625649
0.9997053523217582
0.9997058105925771
0.9997063231503879
0.9997068893816511
0.9997075085987569
0.9997081800527523
0.9997089029441465
0.999709676431828
0.9997104996402758
0.9997113716651027
0.9997122915771114
0.9997132584249033
0.99971427123621
0.9997153290179981
0.9997164307555064
0.9997175754102694
0.9997187619172809
0.9997199891813531
0.9997212560728254
0.9997225614226718
0.999723904017166
0.9997252825921495
0.9997266958270612
0.9997281423387749
0.9997296206753986
0.9997311293100868
0.9997326666350105
0.999734230955541
0.9997358204847882
0.999737433338544
0.9997390675307686
0.9997407209696693
0.9997423914545003
0.9997440766731248
0.9997457742004682
0.9997474814978857
0.9997491959135659
0.9997509146839872
0.9997526349365233
0.999754353693215
0.9997560678757762
0.9997577743118407
0.9997594697424934
0.9997611508310785
0.9997628141733006
0.9997644563085941
0.999766073732747
0.9997676629117359
0.9997692202967323
0.9997707423402099
0.999772225513088
0.9997736663228212
0.9997750613323434
0.9997764071797551
0.9997777005986375
0.9997789384388746
0.9997801176878387
0.9997812354918153
0.9997822891775091
0.9997832762735037
0.9997841945315087
0.9997850419472785
0.9997858167810288
0.9997865175772604
0.9997871431838186
0.999787692770121
0.9997881658444131
0.9997885622699972
0.9997888822803328
0.9997891264929891
0.9997892959223696
0.9997893919912315
0.9997894165409459
0.9997893718405408
0.9997892605944881
0.9997890859492724
0.9997888514986728
0.9997885612877372
0.9997882198152583
0.9997878320345509
0.9997874033520749
0.9997869396234089
0.999786447145507
0.9997859326436395
0.9997854032510313
0.9997848664804261
0.9997843301838896
0.9997838024928658
0.99978329173083
0.9997828063274087
0.9997823547217752
0.9997819452329031
0.9997815859130847
0.9997812847118339
0.9997810494104048
0.9997808873014682
0.9997808037795252
0
0
0.9997108285540622
0.99971055301516
0.9997102393655211
0.9997098910661543
0.9997095131178396
0.9997091113567157
0.9997086922267687
0.9997082624927467
0.9997078289509469
0.9997073982822455
0.9997069769198136
0.9997065709540307
0.9997061860461172
0.9997058273775503
0.9997054996269576
0.9997052069639433
0.9997049530562003
0.9997047410876374
0.9997045737838189
0.9997044534417541
0.9997043819620881
0.9997043608824516
0.9997043914108181
0.9997044744581757
0.9997046106698905
0.9997048004555029
0.999705044016622
0.999705341372865
0.9997056923856718
0.9997060967800527
0.9997065541641924
0.9997070640470267
0.9997076258537613
0.9997082389394826
0.9997089026008545
0.9997096160860671
0.9997103786030413
0.9997111893260674
0.999712047400886
0.9997129519483884
0.999713902066954
0.9997148968335998
0.9997159353039582
0.9997170165112638
0.9997181394643632
0.999719303144923
0.9997205065038606
0.9997217484571652
0.9997230278811371
0.9997243436072105
0.9997256944163915
0.9997270790334711
0.9997284961210519
0.9997299442735408
0.9997314220111528
0.9997329277740714
0.9997344599168125
0.9997360167029352
0.9997375963001447
0.9997391967759266
0.9997408160937513
0.9997424521099869
0.9997441025715544
0.999745765114448
0.9997474372631557
0.999749116431086
0.999750799922031
0.9997524849327518
0.9997541685567075
0.9997558477889951
0.9997575195325081
0.9997591806053568
0.9997608277495437
0.9997624576409113
0.9997640669003338
0.9997656521061502
0.9997672098077839
0.9997687365405152
0.9997702288413396
0.9997716832658423
0.9997730964060023
0.9997744649088305
0.999775785495737
0.9997770549824998
0.9997782702997292
0.9997794285136651
0.9997805268471925
0.9997815627009117
0.9997825336741262
0.9997834375855862
0.9997842724938563
0.9997850367171361
0.9997857288524271
0.9997863477938689
0.9997868927501653
0.9997873632609414
0.9997877592119706
0.9997880808491378
0.9997883287911091
0.9997885040405889
0.9997886079941689
0.999788642450664
0.9997886096179479
0.9997885121181863
0.9997883529914598
0.9997881356976297
0.9997878641163589
0.999787542545034
0.9997871756943205
0.9997867686807858
0.9997863270159822
0.9997858565911025
0.9997853636561667
0.9997848547915311
0.9997843368693585
0.9997838170045656
0.9997833024958639
0.9997828007474542
0.9997823191667291
0.9997818650720457
0.9997814456299808
0.999781067751634
0.9997807379106428
0.999780462060398
0.9997802456576204
0.9997800924271211
0
0
0.9997115942377998
0.9997112328175625
0.9997108497501757
0.9997104472596596
0.9997100283242026
0.9997095971096811
0.9997091584566847
0.9997087176078682
0.9997082799754032
0.9997078509873023
0.9997074359466331
0.999707039927682
0.9997066676959366
0.9997063236567005
0.9997060118205694
0.9997057357863424
0.9997054987386395
0.9997053034561977
0.9997051523274221
0.9997050473712422
0.9997049902614191
0.9997049823528942
0.9997050247089352
0.9997051181283759
0.9997052631722478
0.9997054601894585
0.9997057093411039
0.9997060106233019
0.9997063638883051
0.9997067688639174
0.9997072251710697
0.9997077323396558
0.9997082898225411
0.9997088970078863
0.9997095532297345
0.9997102577770238
0.9997110099009964
0.9997118088211754
0.9997126537298938
0.9997135437955508
0.9997144781645869
0.999715455962358
0.9997164762929025
0.9997175382377804
0.9997186408539864
0.9997197831711118
0.9997209641877607
0.9997221828673999
0.9997234381336431
0.9997247288651514
0.9997260538901581
0.999727411980788
0.9997288018471912
0.9997302221316617
0.999731671402751
0.9997331481495533
0.9997346507761771
0.9997361775965686
0.9997377268297061
0.9997392965953257
0.9997408849101979
0.9997424896851014
0.9997441087225231
0.9997457397152115
0.9997473802456049
0.9997490277862634
0.9997506797013048
0.9997523332489603
0.9997539855852462
0.9997556337688434
0.9997572747671659
0.9997589054636912
0.9997605226665199
0.9997621231182051
0.9997637035068058
0.9997652604781765
0.999766790649427
0.9997682906235293
0.9997697570049978
0.9997711864165735
0.9997725755168311
0.999773921018604
0.9997752197081272
0.9997764684647688
0.9997776642812328
0.9997788042840826
0.9997798857544535
0.9997809061487912
0.9997818631194777
0.9997827545351664
0.9997835785007005
0.9997843333764255
0.9997850177967802
0.9997856306879856
0.9997861712847321
0.999786639145692
0.9997870341677878
0.9997873565990532
0.9997876070500417
0.9997877865036419
0.9997878963232666
0.9997879382592879
0.9997879144536961
0.9997878274428276
0.9997876801581324
0.9997874759247678
0.9997872184579064
0.9997869118564194
0.9997865605936785
0.9997861695049175
0.9997857437705757
0.9997852888945936
0.9997848106768047
0.9997843151784366
0.9997838086789673
0.9997832976214682
0.9997827885467896
0.9997822880215406
0.9997818025530822
0.9997813384885927
0.9997809019122125
0.9997804985712017
0.9997801337012607
0.9997798117969348
0.9997795364581733
0.999779310289226
0
0
0.9997123868826483
0.9997119392535398
0.9997114847060387
0.9997110243783207
0.9997105597462858
0.9997100936807335
0.9997096296292265
0.9997091715354874
0.9997087236029581
0.9997082901395306
0.9997078754201005
0.9997074835883581
0.999707118579489
0.9997067840636117
0.9997064834064502
0.9997062196471923
0.9997059954888741
0.9997058132986941
0.999705675116033
0.9997055826663035
0.9997055373786545
0.9997055404062672
0.9997055926480611
0.9997056947710992
0.9997058472329058
0.9997060503033419
0.9997063040855477
0.9997066085358216
0.9997069634821275
0.9997073686412347
0.9997078236342866
0.9997083280008943
0.9997088812116127
0.9997094826789413
0.9997101317667537
0.9997108277983185
0.9997115700628475
0.9997123578207469
0.9997131903075152
0.9997140667364878
0.9997149863003694
0.9997159481717578
0.9997169515026149
0.9997179954228865
0.9997190790382349
0.9997202014270763
0.9997213616369053
0.9997225586800927
0.9997237915291407
0.9997250591115832
0.9997263603045201
0.9997276939289719
0.9997290587440513
0.9997304534411271
0.9997318766379901
0.9997333268731888
0.9997348026005473
0.9997363021840407
0.9997378238930194
0.9997393658979735
0.999740926266828
0.9997425029619332
0.9997440938377615
0.9997456966394576
0.9997473090022438
0.9997489284518243
0.999750552405775
0.9997521781760563
0.9997538029726167
0.9997554239082089
0.9997570380043784
0.9997586421987145
0.9997602333533185
0.9997618082645422
0.9997633636739423
0.9997648962804714
0.9997664027538324
0.9997678797489825
0.9997693239217004
0.999770731945162
0.9997721005274266
0.9997734264297429
0.9997747064855549
0.9997759376200974
0.9997771168704374
0.9997782414058222
0.9997793085481974
0.9997803157927128
0.9997812608280888
0.9997821415566466
0.9997829561138653
0.9997837028872798
0.9997843805345816
0.9997849880007358
0.9997855245339999
0.9997859897006596
0.9997863833983881
0.9997867058680598
0.9997869577039478
0.9997871398621341
0.9997872536670983
0.9997873008163056
0.9997872833827628
0.9997872038153499
0.9997870649368762
0.9997868699396032
0.9997866223781244
0.9997863261592334
0.9997859855285121
0.9997856050530884
0.999785189600116
0.9997847443101613
0.9997842745645681
0.9997837859457425
0.9997832841899738
0.9997827751318216
0.9997822646372758
0.9997817585275666
0.9997812624975048
0.9997807820278654
0.9997803222648807
0.9997798879094772
0.9997794830651686
0.9997791111322885
0.9997787742078657
0.9997784738810551
0
0
0.9997131902413839
0.9997126572914546
0.9997121304507861
0.9997116100131647
0.9997110964087289
0.9997105914201867
0.9997100973505614
0.9997096170582511
0.999709153691323
0.9997087105648282
0.9997082910329214
0.9997078983954303
0.9997075358209824
0.99970720629061
0.9997069125576031
0.9997066571215104
0.9997064422133726
0.999706269790752
0.9997061415402578
0.9997060588857879
0.9997060230008303
0.9997060348237461
0.999706095074841
0.9997062042745378
0.9997063627618501
0.9997065707128108
0.9997068281583174
0.9997071350012511
0.9997074910325235
0.9997078959460275
0.999708349352265
0.9997088507907278
0.9997093997408487
0.9997099956316725
0.9997106378501021
0.9997113257478979
0.9997120586473175
0.9997128358455925
0.9997136566181435
0.9997145202207471
0.9997154258905656
0.9997163728462519
0.9997173602870617
0.9997183873911814
0.9997194533132078
0.9997205571809974
0.9997216980918211
0.9997228751080445
0.9997240872522795
0.9997253335022167
0.9997266127850998
0.9997279239720498
0.9997292658721977
0.9997306372268411
0.9997320367035863
0.9997334628906799
0.9997349142915103
0.9997363893194737
0.9997378862931802
0.9997394034322005
0.9997409388533278
0.9997424905675468
0.9997440564776823
0.9997456343769101
0.9997472219481078
0.9997488167642061
0.9997504162895144
0.9997520178821685
0.9997536187976681
0.9997552161936211
0.9997568071356605
0.9997583886046302
0.99975995750498
0.9997615106744431
0.9997630448949271
0.9997645569046493
0.9997660434114377
0.9997675011071883
0.9997689266833877
0.9997703168476504
0.9997716683411642
0.9997729779569574
0.9997742425588637
0.9997754591010638
0.9997766246480709
0.9997777363950003
0.9997787916879872
0.9997797880445667
0.9997807231738767
0.9997815949964771
0.9997824016636503
0.999783141575965
0.999783813400983
0.9997844160898787
0.9997849488928742
0.9997854113732627
0.9997858034199392
0.9997861252582239
0.9997863774589177
0.9997865609453818
0.9997866769985952
0.999786727259991
0.9997867137320192
0.9997866387762292
0.9997865051087951
0.999786315793225
0.9997860742301283
0.9997857841436838
0.9997854495645839
0.999785074808924
0.9997846644526358
0.9997842233008193
0.9997837563514504
0.9997832687524706
0.9997827657514419
0.9997822526378712
0.9997817346777914
0.9997812170391531
0.9997807047057362
0.9997802023897476
0.9997797144210282
0.9997792446375725
0.9997787961777203
0.9997783715208027
0.999777971717061
0.9997775975239933
0
0
0.9997139903000316
0.9997133736289203
0.9997127745723603
0.9997121928300695
0.999711628059732
0.999711081160416
0.9997105535216391
0.9997100470816129
0.9997095640790573
0.9997091069619877
0.9997086782656572
0.9997082805272768
0.9997079162135636
0.9997075876669375
0.9997072970650529
0.9997070463929216
0.9997068374255274
0.9997066717193785
0.9997065506109257
0.9997064752205711
0.99970644646077
0.9997064650472471
0.9997065315121774
0.9997066462187386
0.999706809376236
0.999707021055467
0.999707281203765
0.9997075896595944
0.9997079461662957
0.9997083503849881
0.9997088019063369
0.9997093002612825
0.9997098449305014
0.9997104353527619
0.999711070931987
0.9997117510432139
0.999712475037305
0.9997132422446123
0.9997140519774717
0.9997149035317464
0.9997157961873006
0.9997167292076363
0.9997177018385832
0.9997187133062793
0.9997197628143389
0.9997208495404447
0.9997219726322771
0.9997231312030097
0.9997243243262923
0.9997255510309545
0.9997268102953559
0.9997281010416138
0.9997294221296412
0.9997307723512292
0.9997321504241062
0.9997335549862117
0.9997349845901188
0.9997364376978408
0.9997379126759642
0.9997394077913295
0.9997409212072174
0.9997424509802462
0.9997439950579395
0.9997455512771618
0.9997471173633843
0.9997486909309579
0.9997502694843547
0.9997518504205405
0.9997534310324304
0.9997550085135674
0.9997565799639709
0.9997581423972669
0.9997596927490301
0.9997612278864281
0.999762744619082
0.9997642397111867
0.9997657098948064
0.9997671518843424
0.9997685623920718
0.9997699381447142
0.9997712759009123
0.9997725724695415
0.9997738247287142
0.9997750296453644
0.9997761842952625
0.9997772858833053
0.9997783317639299
0.9997793194614678
0.9997802466902771
0.9997811113744545
0.9997819116669663
0.9997826459679809
0.9997833129422614
0.9997839115353845
0.9997844409886688
0.9997849008525751
0.99978529099848
0.9997856116285996
0.9997858632839802
0.9997860468503371
0.9997861635616839
0.9997862150015284
0.9997862031015897
0.9997861301377888
0.999785998723474
0.9997858117995737
0.9997855726216093
0.999785284743181
0.9997849519957839
0.9997845784644743
0.9997841684591063
0.999783726480516
0.9997832571813108
0.9997827653207377
0.9997822557130386
0.999781733168625
0.9997812024280907
0.99978066809006
0.9997801345274465
0.9997796057985292
0.9997790855356099
0.9997785768626087
0.9997780821632031
0.9997776031617011
0.9997771401681256
0.999776693356588
0
0
0.9997147748732181
0.9997140764882232
0.9997134059277919
0.9997127624680187
0.9997121451782583