# vtk DataFile Version 2.0
2D-ADE data file 
ASCII
DATASET RECTILINEAR_GRID
DIMENSIONS 128 128 1 
X_COORDINATES 128 int
0 1 2 3 4 5 6 7 8 9 10 11 12 13 14 15 16 17 18 19 20 21 22 23 24 25 26 27 28 29 30 31 32 33 34 35 36 37 38 39 40 41 42 43 44 45 46 47 48 49 50 51 52 53 54 55 56 57 58 59 60 61 62 63 64 65 66 67 68 69 70 71 72 73 74 75 76 77 78 79 80 81 82 83 84 85 86 87 88 89 90 91 92 93 94 95 96 97 98 99 100 101 102 103 104 105 106 107 108 109 110 111 112 113 114 115 116 117 118 119 120 121 122 123 124 125 126 127 
Y_COORDINATES 128 int
0 1 2 3 4 5 6 7 8 9 10 11 12 13 14 15 16 17 18 19 20 21 22 23 24 25 26 27 28 29 30 31 32 33 34 35 36 37 38 39 40 41 42 43 44 45 46 47 48 49 50 51 52 53 54 55 56 57 58 59 60 61 62 63 64 65 66 67 68 69 70 71 72 73 74 75 76 77 78 79 80 81 82 83 84 85 86 87 88 89 90 91 92 93 94 95 96 97 98 99 100 101 102 103 104 105 106 107 108 109 110 111 112 113 114 115 116 117 118 119 120 121 122 123 124 125 126 127 
Z_COORDINATES 1 int
0
POINT_DATA 16384
SCALARS density double
LOOKUP_TABLE default
0
0
0
0
0
0
0
0
0
0
0
0
0
0
0
0
0
0
0
0
0
0
0
0
0
0
0
0
0
0
0
0
0
0
0
0
0
0
0
0
0
0
0
0
0
0
0
0
0
0
0
0
0
0
0
0
0
0
0
0
0
0
0
0
0
0
0
0
0
0
0
0
0
0
0
0
0
0
0
0
0
0
0
0
0
0
0
0
0
0
0
0
0
0
0
0
0
0
0
0
0
0
0
0
0
0
0
0
0
0
0
0
0
0
0
0
0
0
0
0
0
0
0
0
0
0
0
0
0
0.9993561389298654
0.9993543540025925
0.9993529624019362
0.9993522906162146
0.999351825833093
0.9993514825673073
0.999351309859642
0.9993513250686838
0.9993515274810066
0.9993519213206419
0.9993525143599569
0.9993533141147418
0.9993543276446322
0.999355561945051
0.999357023878924
0.9993587200783054
0.9993606570087344
0.9993628411164325
0.9993652789987523
0.9993679775856625
0.9993709443260378
0.9993741873701538
0.9993777157414929
0.9993815394923213
0.9993856698373151
0.9993901192591897
0.9993949015803989
0.9994000319954177
0.9994055270587753
0.999411404624795
0.9994176837359982
0.9994243844582993
0.9994315276625306
0.9994391347534731
0.9994472273494125
0.9994558269172577
0.9994649543703221
0.9994746296379077
0.9994848712176825
0.9994956957233962
0.9995071174415783
0.9995191479114156
0.9995317955418955
0.9995450652794974
0.9995589583381694
0.9995734720011191
0.9995885995010856
0.999604329982479
0.9996206485451326
0.9996375363657031
0.9996549708891883
0.9996729260797953
0.9996913727177893
0.9997102787271063
0.9997296095176372
0.9997493283262091
0.999769396541498
0.9997897740002815
0.9998104192455088
0.9998312897403921
0.9998523420368585
0.9998735319009763
0.9998948144020279
0.9999161439754773
0.9999374744728514
0.9999587592133357
0.9999799510524987
1.00000100248293
1.0000218657797444
1.0000424932009753
1.0000628372490579
1.0000828509951392
1.000102488463193
1.000121705066186
1.0001404580821776
1.000158707154563
1.0001764147979155
1.0001935468892933
1.0002100731244785
1.0002259674194742
1.000241208239627
1.0002557788417692
1.0002696674186247
1.0002828671390844
1.0002953760825835
1.0003071970703845
1.0003183374008435
1.0003288084994537
1.0003386254974718
1.0003478067550897
1.0003563733463765
1.0003643485235745
1.0003717571778639
1.0003786253125149
1.000384979542549
1.0003908466328364
1.0003962530840838
1.0004012247736422
1.000405786655565
1.0004099625220524
1.0004137748263664
1.0004172445655362
1.0004203912196883
1.000423232743622
1.0004257856052308
1.0004280648645696
1.0004300842867804
1.0004318564818508
1.0004333930644402
1.0004347048273416
1.0004358019215243
1.0004366940350353
1.0004373905659298
1.0004379007800264
1.0004382339050202
1.0004383990973247
1.0004384054657192
1.0004382625575317
1.0004379803482433
1.000437565831127
1.0004370217898062
1.0004363694557732
1.000435663016293
1.0004348220634518
1.0004333189218908
1.0004314627030917
0
0
0.9993545742585753
0.999353899253007
0.9993531757565141
0.9993526008209879
0.9993521847632548
0.9993519471480714
0.9993518719774175
0.9993519619612322
0.9993522280766753
0.9993526797235642
0.9993533243571917
0.9993541694594745
0.9993552226333408
0.9993564912686342
0.9993579824834251
0.9993597032081879
0.9993616602777435
0.9993638605453038
0.9993663110292648
0.9993690190788231
0.9993719925444416
0.9993752399456729
0.9993787706307409
0.9993825949221415
0.9993867242424377
0.9993911712144802
0.9993959497303889
0.9994010749839134
0.9994065634613069
0.9994124328865823
0.9994187021179554
0.9994253909934414
0.9994325201249477
0.9994401106418033
0.9994481838864411
0.9994567610668719
0.9994658628725352
0.9994755090620455
0.9994857180330693
0.999496506386051
0.999507888494535
0.9995198760953782
0.9995324779120796
0.9995456993237518
0.99955954209089
0.9995740041470896
0.999589079463312
0.999604757988292
0.9996210256654038
0.9996378645229235
0.9996552528313603
0.9996731653185904
0.9996915734311148
0.9997104456280436
0.9997297476935582
0.9997494430536418
0.9997694930838686
0.9997898573969332
0.9998104941012598
0.9998313600253028
0.9998524109057663
0.9998736015417152
0.9998948859201067
0.9999162173213626
0.9999375484160277
0.9999588313650469
0.9999800179366785
1.0000010596524334
1.0000219079727355
1.0000425145303624
1.000062831416279
1.000082811518513
1.0001024089105175
1.0001215792812808
1.0001402803956574
1.0001584725702088
1.0001761191475431
1.0001931869508285
1.000209646699995
1.0002254733720486
1.0002406464899023
1.000255150326991
1.0002689740185138
1.0002821115741625
1.0002945617914376
1.0003063280728173
1.000317418153915
1.0003278437531329
1.000337620156008
1.0003467657493668
1.0003553015215152
1.0003632505449471
1.0003706374575836
1.0003774879574006
1.0003838283236153
1.0003896849755236
1.0003950840777822
1.0004000511985187
1.0004046110243243
1.0004087871339598
1.0004126018306538
1.0004160760311525
1.000419229208252
1.0004220793823924
1.000424643156985
1.0004269357915052
1.0004289713060293
1.0004307626107374
1.000432321653997
1.000433659582928
1.0004347869108736
1.000435713685103
1.0004364496432423
1.00043700434815
1.0004373873141374
1.0004376081412005
1.0004376765358232
1.0004376020916754
1.00043739450512
1.000437065628864
1.0004366292775682
1.0004360911234609
1.0004354376813234
1.0004346898289502
1.0004338608803593
1.0004331412945542
0
0
0.9993536067093881
0.9993535171199908
0.9993532070891943
0.9993527675245122
0.999352471087592
0.9993523340037677
0.9993523363599838
0.9993524927418244
0.9993528186209824
0.9993533231706953
0.9993540144133406
0.9993549008026656
0.9993559904592882
0.9993572910257383
0.9993588098787128
0.9993605542518248
0.9993625313052966
0.9993647482339831
0.9993672124087478
0.9993699315293486
0.999372913780463
0.9993761679867034
0.9993797037610666
0.9993835316409867
0.9993876632064952
0.9993921111750802
0.9993968894678102
0.9994020132414768
0.9994074988819459
0.9994133639545675
0.999419627108367
0.99942630793186
0.9994334267596429
0.9994410044304456
0.9994490619990254
0.9994576204060861
0.9994667001122572
0.9994763207039635
0.9994865004806561
0.9994972560342548
0.9995086018326547
0.9995205498196886
0.9995331090439429
0.9995462853282159
0.9995600809902406
0.9995744946235033
0.9995895209447192
0.9996051507118374
0.9996213707135013
0.9996381638278309
0.9996555091454431
0.9996733821489433
0.9996917549388913
0.9997105964946619
0.9997298729577428
0.9997495479249875
0.9997695827401265
0.9997899367734214
0.999810567681625
0.9998314316432099
0.9998524835669459
0.9998736772751332
0.9998949656658567
0.9999163008612746
0.9999376343510056
0.9999589171409259
0.9999800999180206
1.0000011332413266
1.0000219677674516
1.0000425545167801
1.0000628451834335
1.000082792488558
1.0001023505728401
1.000121475420531
1.0001401253040085
1.0001582612352347
1.0001758474085622
1.0001928516183778
1.0002092456350842
1.0002250055239321
1.0002401118931283
1.0002545500603603
1.0002683101301912
1.0002813869784695
1.0002937801437526
1.0003054936295224
1.0003165356244348
1.0003269181508645
1.0003366566543799
1.000345769548455
1.000354277729656
1.0003622040786997
1.0003695729622828
1.0003764097494474
1.0003827403546677
1.0003885908178636
1.0003939869294114
1.0003989539059521
1.0004035161206113
1.0004076968891529
1.000411518311739
1.0004150011683344
1.0004181648644523
1.0004210274228715
1.000423605516142
1.0004259145341845
1.0004279686810607
1.000429781095009
1.0004313639859375
1.0004327287845032
1.0004338862975144
1.0004348468660422
1.0004356205195515
1.0004362171079655
1.0004366464082795
1.0004369182905681
1.0004370429865188
1.0004370310450261
1.0004368926736413
1.0004366392307888
1.0004362883750744
1.0004358572127758
1.0004353281336291
1.0004347161569918
1.0004343012032249
1.0004341784859947
0
0
0.9993534538583291
0.9993533339723085
0.9993531024641089
0.9993528672924613
0.9993527055823204
0.9993526374209682
0.99935270353915
0.9993529221317792
0.999353301477794
0.9993538519464963
0.9993545842574747
0.9993555075381664
0.9993566299792199
0.9993579594870874
0.9993595037572046
0.9993612702911324
0.9993632665110828
0.9993654998973409
0.9993679781204218
0.9993707091787366
0.9993737015431947
0.9993769643016045
0.9993805072965655
0.999384341252097
0.9993884778841431
0.999392929989739
0.9993977115095948
0.9994028375590474
0.9994083244226961
0.9994141895086305
0.9994204512589686
0.999427129014471
0.999434242832251
0.9994418132570487
0.9994498610481206
0.9994584068655165
0.9994674709212368
0.9994770726024499
0.9994872300754928
0.9994979598806734
0.9995092765288629
0.9995211921113955
0.9995337159348568
0.9995468541918531
0.9995606096778227
0.9995749815624178
0.9995899652219491
0.9996055521370115
0.9996217298567716
0.9996384820286572
0.9996557884895307
0.9996736254119882
0.9996919654973995
0.9997107782058046
0.9997300300119373
0.9997496846765214
0.9997697035225721
0.9997900457077438
0.9998106684856483
0.9998315274514378
0.999852576769578
0.9998737693844758
0.9998950572171977
0.9999163913537554
0.9999377222321326
0.9999589998362379
0.9999801739051826
1.0000011941656894
1.0000220105940372
1.0000425737118346
1.0000628349172578
1.0000827468503577
1.000102263787868
1.00012134205988
1.000139940478003
1.0001580207624239
1.0001755479537835
1.0001924907951005
1.00020882206917
1.000224518877936
1.0002395628521905
1.000253940282498
1.0002676421652974
1.000280664161509
1.000293006468448
1.0003046736092474
1.0003156741470864
1.000326020334184
1.0003357277076028
1.0003448146453626
1.0003533018971016
1.0003612121036347
1.0003685693192015
1.0003753985491273
1.0003817253141232
1.000387575250584
1.0003929737542714
1.0003979456726326
1.0004025150489715
1.00040670491974
1.0004105371644616
1.0004140324062976
1.0004172099599864
1.0004200878229177
1.0004226827043892
1.0004250100876613
1.000427084319218
1.0004289187197122
1.0004305257115196
1.0004319169581033
1.0004331035093854
1.0004340959469045
1.0004349045303962
1.0004355393563071
1.0004360105045262
1.00043632810469
1.0004365024589719
1.000436544714972
1.0004364675666317
1.000436283406537
1.0004360024871524
1.0004356445261464
1.0004352516571364
1.0004348442823547
1.0004345026234136
1.0004343433586629
0
0
0.9993534659776017
0.9993532701750844
0.9993530874902516
0.9993529544134789
0.9993528617422771
0.9993528600275319
0.9993529871574972
0.9993532551964626
0.9993536775588737
0.9993542675356288
0.9993550356346466
0.9993559909270797
0.999357142078188
0.9993584973472991
0.9993600646201453
0.999361851591906
0.9993638659202861
0.9993661153391551
0.9993686077791308
0.9993713515009435
0.9993743552312834
0.9993776282957458
0.9993811807459801
0.999385023476951
0.9993891683293937
0.9993936281725058
0.9993984169619728
0.9994035497685185
0.999409042772467
0.9994149132203396
0.9994211793402764
0.9994278602140476
0.999434975604599
0.9994425457394233
0.9994505910515483
0.9994591318815153
0.9994681881453311
0.9994777789749452
0.9994879223392326
0.9994986346546801
0.9995099303958845
0.9995218217165011
0.9995343180913785
0.9995474259902404
0.9995611485923876
0.9995754855505803
0.9995904328104841
0.9996059824899856
0.9996221228203505
0.9996388381487893
0.9996561089996142
0.9996739121889986
0.9996922209865109
0.9997110053152038
0.9997302319812255
0.9997498649236929
0.999769865475996
0.9997901926306889
0.9998108033016812
0.9998316525793352
0.9998526939762692
0.9998738796638824
0.9998951607017509
0.9999164872638504
0.9999378088669275
0.9999590746071174
0.9999802334110178
1.0000012343068467
1.0000220267200703
1.000042560796051
1.0000627877499875
1.0000826602418609
1.0001021327714208
1.0001211620857315
1.0001397075895435
1.0001577317470123
1.0001752004621787
1.0001920834251954
1.0002083544116622
1.000223991523528
1.000238977361799
1.0002532991236606
1.0002669486193925
1.0002799222074978
1.0002922206495763
1.000303848889465
1.0003148157639148
1.00032513365437
1.0003348180912441
1.0003438873232993
1.000352361865341
1.0003602640374696
1.0003676175085738
1.0003744468557403
1.000380777149828
1.0003866335757856
1.000392041094398
1.0003970241502482
1.0004016064287453
1.0004058106633023
1.0004096584921003
1.0004131703624888
1.0004163654798792
1.0004192617970955
1.000421876039495
1.0004242237608196
1.000426319424618
1.0004281765060932
1.0004298076093794
1.0004312245961269
1.0004324387225654
1.0004334607803205
1.000434301232034
1.0004349703469204
1.0004354783791851
1.0004358357837597
1.0004360532968735
1.000436141967093
1.0004361141538727
1.0004359848819155
1.0004357692081243
1.0004354803313147
1.0004351566650294
1.0004348503688867
1.0004345526782836
1.0004343043958686
0
0
0.9993535070436763
0.9993532976729338
0.999353132049478
0.9993530142234512
0.9993529649458986
0.9993530171929432
0.9993531866254862
0.9993534917468251
0.9993539498656338
0.9993545727349701
0.9993553704957635
0.9993563529021563
0.9993575289449655
0.9993589069445284
0.9993604949140225
0.9993623007425632
0.9993643322895582
0.999366597498649
0.9993691045266895
0.9993718618693698
0.9993748784842466
0.9993781639125962
0.9993817283965069
0.9993855829864272
0.9993897396348427
0.9993942112716931
0.99939901185692
0.9994041564055431
0.9994096609809883
0.9994155426528805
0.9994218194162142
0.9994285100697273
0.9994356340523924
0.9994432112381949
0.9994512616907465
0.9994598053807408
0.9994688618707401
0.9994784499732144
0.9994885873890742
0.9994992903350556
0.9995105731691711
0.9995224480239561
0.9995349244573718
0.9995480091309408
0.9995617055239778
0.9995760136916441
0.9995909300730662
0.9996064473539525
0.9996225543861514
0.9996392361644783
0.9996564738590866
0.999674244899726
0.9996925231065953
0.9997112788612337
0.999730479310089
0.9997500885931185
0.9997700680899961
0.9997903766772418
0.9998109709907379
0.9998318056895972
0.9998528337190294
0.999874006571614
0.9998952745480235
0.9999165870196646
0.9999378926967041
0.9999591399055279
0.9999802768796547
1.0000012520676047
1.0000220144601075
1.0000425139375126
1.0000627016363564
1.0000825303319472
1.0001019548316832
1.0001209323718125
1.0001394230086091
1.0001573899936547
1.0001748001221484
1.000191624043047
1.0002078365203257
1.000223416635789
1.000238347925557
1.0002526184444955
1.0002662207553765
1.0002791518422294
1.0002914129500635
1.0003030093557694
1.0003139500773355
1.0003242475305056
1.0003339171435446
1.0003429769417482
1.0003514471138517
1.0003593495724057
1.0003667075196676
1.0003735450295976
1.0003798866552551
1.0003857570693355
1.0003911807439092
1.0003961816736575
1.0004007831451611
1.000405007553175
1.0004088762633145
1.0004124095192963
1.0004156263917932
1.0004185447651281
1.0004211813574482
1.0004235517696545
1.0004256705582992
1.0004275513279206
1.0004292068383942
1.0004306491226815
1.0004318896114701
1.0004329392657756
1.00043380871841
1.0004345084082291
1.0004350487015303
1.0004354400975448
1.000435693606907
1.0004358208789725
1.0004358338389228
1.0004357458029876
1.0004355752794667
1.0004353417173717
1.000435061289858
1.0004347682923318
1.0004344834252068
1.0004342118292806
0
0
0.9993535964144588
0.9993533602991921
0.9993531774105714
0.9993530576844064
0.9993530302104215
0.9993531071301203
0.9993533032015107
0.9993536372067408
0.9993541225922612
0.9993547707103122
0.9993555924706822
0.9993565975980698
0.9993577948977169
0.9993591927623123
0.999360799353949
0.9993626226885892
0.9993646707690433
0.9993669517184174
0.9993694738946032
0.9993722460013423
0.9993752772020584
0.999378577231961
0.9993821565041517
0.9993860262067038
0.9993901983871275
0.9993946860199487
0.9993995030530094
0.9994046644282332
0.9994101860728527
0.9994160848575349
0.999422378518482
0.9994290855414425
0.9994362250065469
0.9994438163940546
0.9994518793523393
0.9994604334307728
0.9994694977815056
0.9994790908354463
0.9994892299589231
0.9994999310985481
0.9995112084225728
0.9995230739675323
0.9995355372991435
0.9995486051962088
0.9995622813657354
0.9995765661965441
0.9995914565574147
0.9996069456443082
0.9996230228795315
0.9996396738639222
0.9996568803813867
0.9996746204534446
0.999692868440023
0.9997115951815803
0.9997307681768851
0.9997503517903953
0.999770307483249
0.9997905940623129
0.999811167942539
0.999831983418935
0.9998529929456658
0.9998741474210772
0.9998953964786034
0.999916688784528
0.9999379723442463
0.9999591948190159
0.9999803038550722
1.0000012474264857
1.0000219741921923
1.000042433866392
1.0000625775999938
1.000082358369169
1.0001017313654366
1.0001206543802377
1.0001390881757155
1.0001569968325923
1.0001743480656227
1.000191113497249
1.000207268880696
1.0002227942649269
1.0002376740954249
1.000251897246762
1.0002654569850757
1.0002783508609425
1.0002905805354299
1.0003021515443546
1.0003130730077143
1.0003233572929224
1.0003330196417066
1.0003420777713308
1.0003505514611486
1.0003584621353707
1.0003658324524194
1.0003726859103557
1.0003790464766904
1.0003849382495134
1.0003903851553446
1.0003954106875528
1.0004000376876216
1.0004042881700739
1.0004081831905156
1.00041174275508
1.000414985768571
1.0004179300178315
1.0004205921863363
1.0004229878956947
1.0004251317695956
1.000427037515852
1.000428718022838
1.0004301854672066
1.000431451428855
1.0004325270089172
1.0004334229559324
1.0004341498143416
1.000434718078048
1.0004351383009644
1.0004354212917057
1.0004355786111092
1.0004356228312028
1.0004355667588127
1.00043542492108
1.0004352169121915
1.0004349581002678
1.0004346613716022
1.0004343559779862
1.000434052188445
0
0
0.9993537216130419
0.9993534279957214
0.9993532085140507
0.999353076381102
0.9993530474045723
0.9993531311016393
0.9993533426841849
0.999353694675244
0.9993541983810672
0.9993548654116462
0.999355706076522
0.9993567295835419
0.9993579446952514
0.9993593598460436
0.9993609832086556
0.9993628228597857
0.9993648869242421
0.9993671836780835
0.9993697216491405
0.9993725097227966
0.9993755572460676
0.9993788741273494
0.9993824709310294
0.9993863589641845
0.9993905503514687
0.9993950580942457
0.9993998961100258
0.9994050792482826
0.9994106232789015
0.9994165448499525
0.9994228614120783
0.9994295911075587
0.9994367526230149
0.999444365005771
0.9994524474450062
0.9994610190200249
0.9994700984191688
0.9994797036340454
0.9994898516348125
0.9995005580331792
0.9995118367404785
0.9995236996286705
0.9995361562022945
0.9995492132893027
0.9995628747582801
0.9995771412688518
0.9995920100610916
0.9996074747885513
0.9996235253981671
0.9996401480588466
0.9996573251390892
0.9996750352326064
0.9996932532296781
0.9997119504309667
0.9997310946997782
0.999750650648313
0.9997705798533357
0.9997908410968568
0.999811390627853
0.9998321824416797
0.9998531685745761
0.9998742994114329
0.9998955240057287
0.9999167904111099
0.9999380460244631
0.9999592379404274
0.9999803133171079
1.00000121975226
1.0000219056684756
1.0000423207049098
1.000062416112014
1.0000821451445545
1.0001014634471088
1.0001203294252576
1.0001387045949934
1.0001565539024357
1.0001738460059386
1.000190553513028
1.0002066531653857
1.0002221259662514
1.0002369572460807
1.000251136664043
1.0002646581448282
1.0002775197522067
1.0002897235027217
1.000301275124685
1.0003121837692588
1.0003224616816837
1.0003321238417002
1.000341187582776
1.0003496721999876
1.0003575985562174
1.000364988695841
1.000371865474277
1.0003782522107194
1.0003841723701679
1.000389649279529
1.0003947058811853
1.0003993645260576
1.0004036468068795
1.0004075734312086
1.000411164132622
1.000414437617679
1.000417411545492
1.0004201025362636
1.0004225262048647
1.0004246972154822
1.0004266293533597
1.0004283356097396
1.0004298282770998
1.0004311190536088
1.0004322191543078
1.0004331394225194
1.0004338904475414
1.0004344827227594
1.000434926826667
1.0004352335073925
1.000435413793692
1.000435479599188
1.0004354438945076
1.0004353190797608
1.0004351184877511
1.0004348579067357
1.0004345473561116
1.0004342031812101
1.0004338391562795
0
0
0.999353847168656
0.9993534809361012
0.9993532136663267
0.9993530541725872
0.999353009622821
0.9993530898857332
0.9993533054218696
0.9993536654104871
0.9993541804052757
0.999354860543043
0.9993557150889826
0.9993567529890964
0.999357982843088
0.9993594129201483
0.9993610513466727
0.9993629062479589
0.9993649858367564
0.9993672985065136
0.9993698529305085
0.9993726581557134
0.999375723692778
0.9993790596040499
0.9993826765872388
0.9993865860512169
0.9993908001807437
0.9993953319867261
0.999400195338344
0.9994054049733664
0.9994109764832464
0.9994169262699697
0.999423271472183
0.9994300298588182
0.9994372196892535
0.9994448595399783
0.9994529680987306
0.999461563928114
0.9994706652017511
0.9994802894170396
0.9994904530894949
0.9995011714344783
0.9995124580427395
0.999524324556646
0.9995367803541887
0.9995498322478256
0.9995634842049561
0.9995777370963111
0.9995925884778206
0.9996080324106179
0.999624059322805
0.9996406559154701
0.9996578051143203
0.999675486067159
0.9996936741864447
0.9997123412352614
0.9997314554543411
0.9997509817272817
0.999770881780788
0.9997911144166796
0.999811635772473
0.9998323996075461
0.9998533576121599
0.9998744597369287
0.9998956545405734
0.99991688955398
0.999938111658622
0.99995926747729
0.9999803037747967
1.0000011678658667
1.000021808026848
1.0000421739072096
1.0000622169360687
1.0000818907183169
1.000101151414314
1.000119958096687
1.0001382730775483
1.0001560621994858
1.000173295083989
1.0001899453315937
1.000205990668918
1.0002214130389213
1.0002361986320578
1.000250337857524
1.0002638252553753
1.0002766593518895
1.0002888424620957
1.000300380444775
1.000311282416463
1.0003215604319369
1.000331229139355
1.0003403054186144
1.0003488080115677
1.0003567571525311
1.0003641742070422
1.000371081326107
1.0003775011222802
1.0003834563728655
1.000388969754384
1.0003940636112825
1.000398759760662
1.000403079333683
1.0004070426532448
1.0004106691466
1.0004139772907576
1.0004169845878994
1.0004197075675352
1.000422161811837
1.0004243620004871
1.000426321971643
1.0004280547957416
1.0004295728586956
1.0004308879519432
1.000432011370644
1.0004329540210282
1.0004337265263825
1.0004343393304145
1.0004348028483503
1.0004351276579875
1.0004353245163125
1.0004354043032122
1.000435378516077
1.0004352588058358
1.0004350551932748
1.0004347787462495
1.0004344398509273
1.0004340463912076
1.0004336080018605
0
0
0.9993539413136346
0.9993534982160853
0.9993531758269851
0.99935297874676
0.9993529108373923
0.9993529788985238
0.9993531893822785
0.9993535502980768
0.999354070405513
0.9993547582008206
0.9993556222780082
0.9993566711183497
0.9993579129272834
0.9993593557869836
0.9993610077700055
0.9993628770024496
0.9993649717477611
0.999367300497924
0.9993698720549634
0.9993726956090337
0.9993757808171629
0.9993791378799206
0.9993827776130327
0.9993867115117547
0.9993909518052598
0.999395511497714
0.9994004043926304
0.9994056450972145
0.9994112490036213
0.9994172322444049
0.9994236116199177
0.9994304044960824
0.9994376286716588
0.9994453022149584
0.9994534432708226
0.9994620698395688
0.9994711995305122
0.9994808492935182
0.9994910351328232
0.9995017718080643
0.9995130725279944
0.999524948642782
0.9995374093410182
0.9995504613576119
0.9995641086986249
0.9995783523887938
0.9995931902470134
0.999608616694459
0.9996246225992946
0.9996411951611398
0.9996583178376129
0.9996759703144521
0.9996941285198921
0.9997127646832445
0.9997318474369534
0.9997513419608429
0.9997712101667979
0.9997914109217629
0.9998119003066398
0.9998326319084615
0.9998535571430098
0.9998746256048846
0.9998957854418253
0.9999169837498652
0.9999381669856221
0.9999592813916944
0.9999802734307629
1.0000010902235912
1.000021679985714
1.000041992457209
1.0000619793196501
1.000081594594102
1.0001007950139527
1.0001195403664491
1.0001377937970812
1.0001555220714216
1.0001726957896817
1.000189289550108
1.0002052820583391
1.0002206561809892
1.00023539894296
1.0002495014692556
1.0002629588733567
1.0002757700954368
1.0002879376948377
1.0002994676022257
1.000310368837657
1.0003206532014353
1.0003303349450365
1.0003394304295723
1.0003479577792231
1.0003559365368218
1.0003633873283215
1.0003703315422563
1.0003767910295427
1.000382787828101
1.0003883439158257
1.000393480994447
1.000398220305857
1.0004025824814897
1.000406587424465
1.0004102542233675
1.0004136010958327
1.0004166453595125
1.0004194034275584
1.0004218908254934
1.0004241222261545
1.0004261114994204
1.0004278717739143
1.0004294155083788
1.0004307545697542
1.000431900315087
1.0004328636802062
1.0004336552803006
1.000434285505753
1.0004347645966385
1.0004351027560625
1.0004353102911558
1.000435397436958
1.0004353741065215
1.0004352501993727
1.0004350345977504
1.0004347344416133
1.000434357173792
1.000433907436853
1.0004333907932028
0
0
0.999353977418435
0.9993534582270633
0.9993530780828164
0.9993528392958805
0.9993527428560336
0.9993527922388425
0.9993529919216919
0.9993533483199233
0.9993538683210572
0.999354559408721
0.9993554294212674
0.9993564861852243
0.9993577375383196
0.9993591913760596
0.9993608556629439
0.9993627384949311
0.9993648481759619
0.9993671932832824
0.9993697827315765
0.999372625840403
0.9993757324008112
0.9993791127388494
0.999382777774949
0.9993867390769937
0.999391008904099
0.9993956002381114
0.9994005267998338
0.9994058030470417
0.9994114441515171
0.9994174659526913
0.9994238848859525
0.9994307178842242
0.9994379822520737
0.9994456955122863
0.9994538752255973
0.9994625387849925
0.9994717031867528
0.9994813847810874
0.9994915990058576
0.9995023601074636
0.9995136808534224
0.9995255722415398
0.9995380432108313
0.999551100359462
0.9995647476750011
0.9995789862821716
0.999593814213056
0.9996092262044252
0.9996252135264375
0.999641763846518
0.9996588611316884
0.9996764855920599
0.9996946136676291
0.9997132180598812
0.9997322678091131
0.9997517284177487
0.9997715620192926
0.9997917275919365
0.9998121812151965
0.9998328763673141
0.9998537642605041
0.9998747942104896
0.9998959140361114
0.9999170704841812
0.9999382096741559
0.9999592775566547
0.999980220379405
1.0000009851538179
1.000021520115166
1.0000417751692565
1.000061702318545
1.0000812560609074
1.0001003937546924
1.0001190759442842
1.0001372666411557
1.0001549335562745
1.0001720482807337
1.0001885864125466
1.0002045276286657
1.0002198557024156
1.00023455846763
1.0002486277318343
1.0002620591417701
1.0002748520054283
1.0002870090754794
1.000298536299592
1.0003094425435761
1.0003197392935759
1.0003294403436978
1.0003385614754163
1.0003471201349898
1.0003551351147797
1.000362626243991
1.0003696140938036
1.0003761197012488
1.0003821643155066
1.0003877691695255
1.0003929552791186
1.000397743270875
1.0004021532394498
1.000406204634051
1.0004099161732352
1.0004133057865043
1.0004163905806551
1.0004191868284094
1.0004217099765795
1.0004239746709342
1.0004259947948273
1.0004277835186701
1.0004293533579403
1.0004307162384332
1.0004318835663566
1.000432866298942
1.0004336750183702
1.0004343200167387
1.0004348113667423
1.0004351589369354
1.00043537242613
1.0004354613617097
1.0004354347063213
1.0004353005713633
1.000435066321941
1.0004347372003095
1.0004343174411598
1.0004338089105131
1.0004332149721298
0
0
0.9993539326731864
0.999353342134684
0.9993529058898514
0.9993526246941303
0.9993524969204061
0.9993525240985291
0.9993527092443264
0.9993530570459603
0.9993535731748757
0.9993542642454643
0.9993551372679892
0.9993561995222686
0.9993574585142341
0.9993589219113392
0.9993605975566227
0.999362493518428
0.9993646181329113
0.9993669800508495
0.9993695882911827
0.9993724522949211
0.9993755819775685
0.999378987780034
0.9993826807161217
0.9993866724139583
0.9993909751488514
0.9993956018650122
0.9994005661834308
0.9994058823932619
0.9994115654243224
0.9994176307986351
0.999424094559353
0.9994309731759101
0.9994382834247735
0.9994460422457676
0.9994542665745247
0.9994629731522234
0.9994721783143319
0.9994818977606302
0.9994921463092629
0.9995029376380286
0.9995142840164786
0.9995261960327366
0.9995386823191861
0.9995517492814024
0.9995654008348208
0.9995796381537446
0.9995944594373208
0.9996098596970964
0.999625830570697
0.9996423601660323
0.999659432940222
0.9996770296171632
0.9996951271472817
0.9997136987125472
0.9997327137792573
0.9997521382004215
0.9997719343687814
0.9997920614206192
0.9998124754895152
0.999833130008164
0.9998539760552598
0.9998749627433373
0.9998960376423767
0.999917147232954
0.9999382373818156
0.9999592538320149
0.9999801426991843
1.0000008509652154
1.0000213269605454
1.0000415208264444
1.000061384949173
1.000080874358568
1.0000999470845575
1.000118564466189
1.0001366914090029
1.0001542965878707
1.0001713525937594
1.0001878360241712
1.0002037275182387
1.000219011738564
1.0002336773028568
1.0002477166692476
1.0002611259797962
1.0002739048672071
1.0002860562301035
1.000297585982389
1.0003085027823202
1.000318817746857
1.000328544156752
1.0003376971576114
1.0003462934619167
1.0003543510566457
1.0003618889207695
1.0003689267564515
1.0003754847373376
1.0003815832767735
1.0003872428182674
1.0003924836499358
1.000397325744065
1.0004017886223278
1.0004058912465967
1.0004096519347039
1.000413088299975
1.0004162172128852
1.0004190547827765
1.0004216163572888
1.0004239165369697
1.0004259692026014
1.000427787552772
1.000429384149067
1.000430770966789
1.0004319594506692
1.0004329605733924
1.0004337848901323
1.0004344425891156
1.000434943546386
1.0004352973415607
1.0004355131865317
1.000435599854598
1.0004355655163768
1.0004354171612313
1.0004351605398294
1.0004347995295608
1.0004343365093942
1.0004337708476934
1.0004331044488268
0
0
0.9993537891985238
0.9993531349089996
0.9993526468488891
0.9993523246090831
0.999352165078299
0.9993521686317753
0.9993523369811507
0.9993526736308649
0.999353183392148
0.9993538720375811