# vtk DataFile Version 2.0
2D-ADE data file 
ASCII
DATASET RECTILINEAR_GRID
DIMENSIONS 128 128 1 
X_COORDINATES 128 int
0 1 2 3 4 5 6 7 8 9 10 11 12 13 14 15 16 17 18 19 20 21 22 23 24 25 26 27 28 29 30 31 32 33 34 35 36 37 38 39 40 41 42 43 44 45 46 47 48 49 50 51 52 53 54 55 56 57 58 59 60 61 62 63 64 65 66 67 68 69 70 71 72 73 74 75 76 77 78 79 80 81 82 83 84 85 86 87 88 89 90 91 92 93 94 95 96 97 98 99 100 101 102 103 104 105 106 107 108 109 110 111 112 113 114 115 116 117 118 119 120 121 122 123 124 125 126 127 
Y_COORDINATES 128 int
0 1 2 3 4 5 6 7 8 9 10 11 12 13 14 15 16 17 18 19 20 21 22 23 24 25 26 27 28 29 30 31 32 33 34 35 36 37 38 39 40 41 42 43 44 45 46 47 48 49 50 51 52 53 54 55 56 57 58 59 60 61 62 63 64 65 66 67 68 69 70 71 72 73 74 75 76 77 78 79 80 81 82 83 84 85 86 87 88 89 90 91 92 93 94 95 96 97 98 99 100 101 102 103 104 105 106 107 108 109 110 111 112 113 114 115 116 117 118 119 120 121 122 123 124 125 126 127 
Z_COORDINATES 1 int
0
POINT_DATA 16384
SCALARS density double
LOOKUP_TABLE default
0
0
0
0
0
0
0
0
0
0
0
0
0
0
0
0
0
0
0
0
0
0
0
0
0
0
0
0
0
0
0
0
0
0
0
0
0
0
0
0
0
0
0
0
0
0
0
0
0
0
0
0
0
0
0
0
0
0
0
0
0
0
0
0
0
0
0
0
0
0
0
0
0
0
0
0
0
0
0
0
0
0
0
0
0
0
0
0
0
0
0
0
0
0
0
0
0
0
0
0
0
0
0
0
0
0
0
0
0
0
0
0
0
0
0
0
0
0
0
0
0
0
0
0
0
0
0
0
0
0.9997986139079755
0.9997981117023973
0.9997975460947732
0.9997969476343741
0.9997961842447904
0.9997952623617328
0.9997942181401768
0.9997930765553307
0.9997918564654472
0.9997905760277539
0.9997892520766424
0.9997878994285905
0.9997865310564346
0.9997851583785022
0.9997837914334341
0.9997824390344247
0.99978110893086
0.9997798079591688
0.9997785421733381
0.9997773169560298
0.9997761371122226
0.9997750069469019
0.999773930328678
0.9997729107413981
0.9997719513256776
0.9997710549120038
0.9997702240468513
0.9997694610130214
0.9997687678452439
0.9997681463419147
0.9997675980737242
0.9997671243898106
0.9997667264219922
0.9997664050875599
0.9997661610910439
0.9997659949253119
0.9997659068723107
0.9997658970037133
0.9997659651816854
0.999766111059956
0.9997663340853143
0.9997666334996413
0.9997670083425286
0.9997674574545194
0.999767979480962
0.9997685728764557
0.9997692359098389
0.9997699666696506
0.9997707630699907
0.9997716228566955
0.9997725436137334
0.999773522769742
0.9997745576046189
0.9997756452560949
0.9997767827262325
0.9997779668877937
0.9997791944904603
0.9997804621668843
0.9997817664385817
0.9997831037216862
0.9997844703326171
0.999785862493706
0.9997872763388639
0.9997887079193665
0.9997901532098551
0.9997916081146435
0.9997930684744353
0.9997945300735462
0.9997959886477265
0.9997974398926589
0.9997988794732124
0.9998003030335015
0.9998017062077915
0.9998030846322709
0.9998044339576881
0.999805749862831
0.9998070280688117
0.9998082643540841
0.9998094545701249
0.9998105946576729
0.9998116806634155
0.999812708757005
0.9998136752482721
0.9998145766045071
0.9998154094676744
0.9998161706714449
0.99981685725792
0.9998174664939566
0.999817995887005
0.9998184432004007
0.9998188064680773
0.9998190840086871
0.9998192744391584
0.9998193766877379
0.999819390006614
0.9998193139842434
0.9998191485575567
0.999818894024247
0.9998185510554187
0.9998181207089171
0.9998176044437468
0.9998170041360631
0.9998163220973417
0.9998155610954528
0.9998147243795288
0.9998138157097026
0.9998128393929901
0.9998118003268318
0.9998107040520611
0.9998095568172202
0.9998083656559413
0.9998071384788013
0.9998058841817085
0.999804612772127
0.9998033355030999
0.9998020649960532
0.9998008153847282
0.9997996025847972
0.9997984444352964
0.9997973599014219
0.9997963683561559
0.9997954952809254
0.9997947773770861
0.9997942201732102
0.999793687265349
0.9997932091601498
0
0
0.9997980759504371
0.9997978566657223
0.9997974463427045
0.9997968732865822
0.9997961537898663
0.9997953040818945
0.9997943375936769
0.999793272502694
0.9997921281301416
0.9997909217054366
0.9997896685464136
0.9997883825037236
0.9997870760503214
0.9997857603074448
0.9997844451636317
0.9997831394150651
0.9997818508945706
0.9997805865886848
0.999779352744857
0.9997781549663826
0.9997769982940508
0.9997758872751358
0.9997748260209858
0.9997738182545151
0.999772867348924
0.9997719763589147
0.9997711480455641
0.9997703848958785
0.999769689137932
0.9997690627523782
0.9997685074810229
0.9997680248330533
0.9997676160894481
0.9997672823060274
0.9997670243155345
0.9997668427290988
0.999766737937371
0.9997667101115878
0.9997667592047651
0.9997668849531939
0.9997670868783636
0.9997673642894024
0.9997677162860973
0.9997681417625154
0.9997686394112278
0.9997692077281084
0.9997698450176665
0.9997705493988439
0.9997713188112118
0.9997721510214851
0.9997730436302635
0.9997739940789296
0.9997749996566168
0.9997760575071846
0.99977716463614
0.9997783179174622
0.9997795141003031
0.9997807498155513
0.9997820215822631
0.999783325813986
0.9997846588250117
0.9997860168366116
0.9997873959833213
0.9997887923193542
0.9997902018252265
0.999791620414682
0.9997930439420163
0.9997944682098797
0.9997958889776504
0.9997973019704514
0.9997987028888767
0.9998000874194758
0.9998014512460339
0.9998027900616588
0.9998040995816755
0.9998053755573013
0.9998066137900662
0.9998078101469032
0.9998089605758449
0.9998100611222162
0.9998111079452283
0.9998120973348454
0.999813025728804
0.9998138897296592
0.9998146861217282
0.9998154118878131
0.9998160642255933
0.9998166405635848
0.9998171385765979
0.9998175562006206
0.9998178916471059
0.9998181434166491
0.9998183103120781
0.9998183914510134
0.9998183862779857
0.9998182945762388
0.9998181164793793
0.9998178524830923
0.9998175034571765
0.9998170706582223
0.9998165557433119
0.999815960785199
0.9998152882895238
0.9998145412147014
0.9998137229952537
0.9998128375694753
0.9998118894124522
0.9998108835755719
0.9998098257337154
0.9998087222413333
0.9998075801985831
0.9998064075281459
0.9998052130616558
0.9998040066334215
0.9998027991843587
0.9998016028764669
0.9998004311829463
0.9997992988775855
0.999798222091359
0.9997972187456018
0.9997963087007501
0.9997955103581826
0.9997948369326956
0.9997943040416405
0.9997939268626619
0.9997937332400212
0
0
0.999797799979854
0.9997977297970644
0.9997974131175085
0.9997968756861795
0.9997962031687628
0.9997954066023054
0.9997944964992854
0.9997934909870189
0.9997924077203816
0.9997912619220092
0.9997900676637647
0.999788837970001
0.999787584665515
0.9997863184026875
0.999785048782878
0.9997837844554051
0.9997825332077788
0.9997813020568134
0.9997800973360836
0.9997789247744576
0.9997777895649352
0.9997766964241137
0.999775649642733
0.9997746531279514
0.9997737104382171
0.9997728248116733
0.9997719991889797
0.9997712362313828
0.9997705383347938
0.9997699076405591
0.9997693460435321
0.9997688551979932
0.9997684365218936
0.999768091199857
0.999767820185299
0.9997676242020007
0.999767503745403
0.9997674590838689
0.9997674902601025
0.9997675970928822
0.9997677791792322
0.999768035897114
0.9997683664086938
0.9997687696642095
0.9997692444064382
0.9997697891757351
0.9997704023156062
0.9997710819787529
0.9997718261335218
0.9997726325706828
0.9997734989104577
0.9997744226097219
0.9997754009693054
0.9997764311413267
0.9997775101365102
0.9997786348314353
0.9997798019757012
0.9997810081989832
0.9997822500179934
0.99978352384336
0.9997848259864618
0.9997861526662677
0.9997875000162373
0.9997888640913613
0.9997902408754077
0.9997916262884725
0.9997930161949007
0.9997944064116763
0.9997957927173444
0.9997971708615446
0.9997985365752078
0.9997998855814645
0.9998012136072905
0.9998025163959077
0.9998037897199276
0.9998050293952148
0.9998062312954341
0.9998073913672045
0.9998085056457993
0.9998095702712859
0.9998105815050107
0.9998115357463048
0.999812429549301
0.9998132596397279
0.9998140229315696
0.9998147165434659
0.9998153378147563
0.9998158843210614
0.9998163538893369
0.9998167446123338
0.9998170548624348
0.9998172833048597
0.9998174289102588
0.999817490966747
0.9998174690914629
0.9998173632417748
0.9998171737262882
0.9998169012158612
0.999816546754868
0.9998161117730087
0.9998155980980142
0.999815007969659
0.9998143440555595
0.9998136094693142
0.9998128077916068
0.9998119430949789
0.999811019973033
0.999810043574877
0.9998090196455727
0.9998079545731414
0.9998068554425378
0.9998057300969727
0.9998045872059085
0.9998034363342758
0.9998022880086249
0.9998011537918702
0.9998000463812661
0.9997989796026406
0.9997979682144971
0.9997970279996664
0.9997961770870463
0.9997954338018894
0.9997948083115605
0.9997943113902872
0.999794030095902
0.9997939889374136
0
0
0.9997978732911365
0.9997977769460612
0.9997974600517647
0.9997969638702743
0.9997963258978464
0.9997955605390393
0.9997946897867029
0.9997937294221706
0.9997926933975675
0.9997915955998149
0.9997904492512799
0.9997892663811605
0.9997880579890969
0.9997868341641838
0.9997856041209705
0.9997843762445592
0.9997831581624368
0.999781956817218
0.9997807785335322
0.9997796290797307
0.9997785137241373
0.9997774372846835
0.9997764041716812
0.9997754184240722
0.9997744837396928
0.9997736035001492
0.9997727807909438
0.9997720184174799
0.9997713189175732
0.9997706845710338
0.9997701174068488
0.999769619208447
0.9997691915174679
0.9997688356364378
0.9997685526306743
0.9997683433297382
0.9997682083286729
0.9997681479892697
0.9997681624415226
0.999768251585436
0.9997684150932822
0.9997686524123992
0.9997689627685716
0.9997693451700227
0.9997697984120106
0.9997703210820071
0.9997709115654181
0.9997715680517916
0.9997722885414444
0.9997730708524406
0.9997739126278431
0.9997748113431681
0.9997757643139672
0.9997767687034822
0.9997778215303134
0.9997789196760651
0.9997800598929357
0.9997812388112431
0.9997824529468855
0.999783698708754
0.9997849724061241
0.999786270256078
0.999787588391002
0.9997889228662296
0.9997902696678979
0.9997916247210961
0.9997929838983745
0.9997943430286973
0.9997956979069029
0.9997970443037327
0.9997983779764856
0.9997996946803345
0.9998009901803251
0.9998022602640753
0.9998035007551556
0.9998047075271324
0.9998058765182265
0.9998070037465271
0.999808085325682
0.9998091174809818
0.999810096565724
0.9998110190777594
0.9998118816760936
0.9998126811974307
0.999813414672541
0.9998140793423406
0.9998146726735735
0.9998151923740174
0.9998156364071242
0.9998160030060462
0.999816290687012
0.9998164982620438
0.99981662485103
0.9998166698932003
0.9998166331580878
0.9998165147560766
0.9998163151486903
0.9998160351588018
0.9998156759809859
0.9998152391922757
0.9998147267636364
0.9998141410725075
0.9998134849168111
0.999812761530878
0.9998119746037731
0.9998111283005484
0.9998102272869234
0.999809276757895
0.9998082824707074
0.9998072507824782
0.9998061886921621
0.9998051038856635
0.9998040047840652
0.9998029005961546
0.9998018013681945
0.9998007180034616
0.9997996622722517
0.9997986469129879
0.9997976857779726
0.9997967932423691
0.9997959835638661
0.9997952727318631
0.9997946830204574
0.9997942288175713
0.9997939485191184
0.9997938829336148
0
0
0.9997981295645161
0.9997979611942736
0.9997976218289049
0.9997971326066517
0.999796503938603
0.9997957581130619
0.999794914169644
0.999793984809181
0.9997929833326447
0.9997919225743297
0.9997908143226483
0.9997896695169076
0.9997884983878494
0.9997873104093817
0.9997861143079915
0.9997849181134199
0.9997837292099861
0.9997825543836122
0.9997813998704039
0.9997802714045875
0.999779174262809
0.9997781133037272
0.999777093002781
0.9997761174821208
0.9997751905358573
0.9997743156509525
0.999773496024199
0.9997727345757472
0.9997720339596604
0.9997713965719557
0.9997708245565821
0.9997703198097342
0.9997698839828894
0.9997695184849111
0.9997692244835247
0.9997690029064353
0.999768854442328
0.9997687795419519
0.9997687784194524
0.9997688510540876
0.9997689971924336
0.9997692163511496
0.9997695078203468
0.9997698706675867
0.9997703037424964
0.9997708056819873
0.9997713749160313
0.9997720096739443
0.9997727079911161
0.9997734677161136
0.9997742865180933
0.9997751618944474
0.9997760911786163
0.9997770715480118
0.9997781000319967
0.9997791735198823
0.9997802887689101
0.9997814424122121
0.9997826309667426
0.9997838508411915
0.9997850983439149
0.9997863696909088
0.9997876610138834
0.9997889683684892
0.9997902877427622
0.9997916150658503
0.9997929462170935
0.9997942770355205
0.9997956033298292
0.9997969208888972
0.9997982254928764
0.9997995129248997
0.9998007789834225
0.9998020194952008
0.9998032303289003
0.9998044074093011
0.9998055467320588
0.9998066443789627
0.9998076965336126
0.9998086994974282
0.9998096497058927
0.9998105437449244
0.9998113783672608
0.9998121505087447
0.9998128573043962
0.9998134961041601
0.9998140644882367
0.9998145602818923
0.9998149815696911
0.9998153267090786
0.9998155943432929
0.999815783413576
0.999815893170714
0.9998159231859325
0.9998158733612226
0.99981574393919
0.99981553551256
0.9998152490334958
0.9998148858229293
0.9998144475801204
0.9998139363927159
0.9998133547475907
0.9998127055427934
0.9998119921009321
0.9998112181843593
0.9998103880124949
0.9998095062816207
0.9998085781873606
0.9998076094499071
0.9998066063419287
0.9998055757190585
0.9998045250518844
0.9998034624563963
0.9998023967209795
0.999801337337016
0.9998002945279667
0.9997992792332099
0.9997983030326132
0.9997973782772032
0.9997965182726449
0.9997957366490313
0.9997950462937049
0.999794466649734
0.999794020290196
0.9997937177665439
0.9997935803390338
0
0
0.9997985013198305
0.9997982618363156
0.9997978812775589
0.9997973675563161
0.9997967329380185
0.9997959941092086
0.9997951631168431
0.9997942526666982
0.9997932751407549
0.999792241560443
0.9997911623997298
0.9997900476775805
0.9997889068000244
0.9997877485383955
0.9997865810763451
0.9997854120325952
0.9997842484812721
0.9997830969828754
0.9997819636198017
0.9997808540307371
0.9997797734430947
0.9997787267031091
0.999777718302871
0.9997767524038672
0.9997758328570008
0.9997749632192594
0.9997741467672747
0.9997733865080923
0.9997726851874904
0.9997720452962208
0.9997714690745235
0.9997709585152632
0.999770515366015
0.9997701411303941
0.9997698370689045
0.9997696041995527
0.9997694432984336
0.9997693549004764
0.9997693393004992
0.9997693965546978
0.9997695264826574
0.9997697286699605
0.9997700024714236
0.999770347014985
0.9997707612062398
0.999771243733596
0.9997717930740135
0.9997724074992813
0.9997730850827677
0.9997738237065807
0.9997746210690699
0.9997754746926059
0.999776381931566
0.9997773399804766
0.999778345882257
0.999779396536524
0.9997804887079329
0.9997816190345351
0.9997827840361474
0.9997839801227428
0.9997852036028887
0.9997864506922536
0.9997877175222332
0.9997890001487414
0.9997902945612221
0.9997915966919415
0.9997929024256164
0.9997942076094446
0.9997955080635852
0.999796799592139
0.9997980779946669
0.9997993390782737
0.9998005786702767
0.9998017926314521
0.9998029768698548
0.9998041273551737
0.9998052401335868
0.9998063113430465
0.9998073372289318
0.9998083141599777
0.9998092386443846
0.9998101073460082
0.9998109171005198
0.9998116649314277
0.9998123480658465
0.9998129639499154
0.9998135102637621
0.9998139849359278
0.9998143861571805
0.9998147123936556
0.9998149623992924
0.9998151352275416
0.9998152302423564
0.9998152471284918
0.9998151859011746
0.9998150469152179
0.9998148308736959
0.9998145388363121
0.9998141722276189
0.9998137328452805
0.9998132228685822
0.9998126448674108
0.9998120018119516
0.9998112970833315
0.9998105344854418
0.9998097182581321
0.9998088530919027
0.9998079441441676
0.999806997056968
0.9998060179756261
0.9998050135676038
0.9998039910413029
0.9998029581641711
0.9998019232741987
0.9998008952788263
0.9997998836566961
0.9997988984859891
0.9997979503982509
0.9997970503907985
0.9997962099180717
0.9997954417449574
0.9997947588555085
0.9997941734979412
0.9997937026187775
0.9997933586068498
0.9997931494763049
0
0
0.9997989620435537
0.9997986449415761
0.9997982084064785
0.9997976581892689
0.9997970053989368
0.9997962593706669
0.999795430113025
0.9997945289155598
0.9997935658532824
0.9997925505850307
0.9997914925647194
0.9997904007820302
0.9997892837482308
0.999788149534032
0.9997870057587555
0.9997858595816844
0.9997847177152926
0.9997835864448763
0.9997824716487972
0.9997813788201335
0.9997803130890883
0.9997792792444401
0.9997782817530759
0.9997773247772619
0.9997764121894938
0.9997755475848875
0.9997747342912
0.9997739753766777
0.9997732736559704
0.9997726316943853
0.9997720518107656
0.9997715360792663
0.9997710863303144
0.9997707041510013
0.9997703908851481
0.9997701476332557
0.9997699752525333
0.9997698743571666
0.9997698453189572
0.9997698882684557
0.999770003096659
0.9997701894573393
0.9997704467700411
0.9997707742237532
0.9997711707812598
0.9997716351841416
0.9997721659583934
0.9997727614206071
0.9997734196846692
0.9997741386689047
0.999774916103606
0.9997757495388815
0.9997766363527614
0.9997775737595074
0.9997785588180729
0.9997795884406779
0.9997806594014652
0.9997817683452219
0.9997829117961572
0.9997840861667425
0.9997852877666282
0.999786512811663
0.9997877574330507
0.9997890176866856
0.9997902895627143
0.999791568995375
0.9997928518731619
0.9997941340493728
0.9997954113530765
0.9997966796005481
0.9997979346071978
0.9997991722000237
0.9998003882305899
0.9998015785885327
0.9998027392155779
0.99980386612004
0.9998049553917502
0.9998060032173715
0.9998070058960103
0.9998079598550572
0.9998088616661553
0.9998097080612036
0.9998104959482869
0.9998112224274259
0.9998118848060465
0.9998124806140603
0.9998130076184655
0.999813463837384
0.9998138475534544
0.9998141573265333
0.9998143920056541
0.9998145507402286
0.9998146329904821
0.9998146385371511
0.9998145674904801
0.99981442029858
0.9998141977552438
0.9998139010073186
0.9998135315617664
0.9998130912925548
0.9998125824475392
0.9998120076554906
0.9998113699334383
0.999810672694468
0.9998099197560979
0.9998091153493027
0.9998082641281564
0.9998073711799512
0.9998064420355403
0.9998054826795234
0.9998044995592656
0.9998034995910171
0.9998024901627555
0.9998014791351012
0.9998004748343148
0.9997994860213671
0.9997985218601356
0.999797591939865
0.9997967062422435
0.9997958748573269
0.9997951082149743
0.9997944179163295
0.9997938141211943
0.9997933062577757
0.9997929055124698
0.9997926176352793
0
0
0.999799484865044
0.9997990839329848
0.9997985841845247
0.9997979904317258
0.9997973086175894
0.999796545332235
0.9997957090835098
0.9997948083413096
0.9997938514518179
0.9997928469554236
0.9997918031051225
0.9997907278463494
0.9997896288624258
0.9997885135258283
0.9997873888605593
0.9997862615385014
0.9997851378813077
0.9997840238632908
0.999782925119629
0.9997818469585437
0.9997807943746224
0.9997797720620459
0.9997787844271723
0.9997778355999614
0.9997769294438474
0.9997760695639167
0.9997752593133928
0.9997745017985168
0.9997737998819742
0.9997731561850568
0.999772573088783
0.9997720527341963
0.9997715970220644
0.9997712076122085
0.999770885922654
0.9997706331287951
0.9997704501627374
0.9997703377129686
0.9997702962244699
0.9997703258993729
0.9997704266982357
0.9997705983419898
0.9997708403145915
0.9997711518663853
0.9997715320181764
0.9997719795659932
0.9997724930864952
0.999773070942992
0.9997737112920092
0.9997744120903518
0.9997751711025952
0.9997759859089458
0.9997768539134135
0.9997777723522371
0.9997787383025192
0.9997797486910253
0.999780800303121
0.9997818897918218
0.9997830136869487
0.9997841684043878
0.999785350255463
0.999786555456441
0.9997877801382009
0.9997890203560916
0.99979027210003
0.9997915313048673
0.9997927938610769
0.9997940556258038
0.9997953124343059
0.9997965601118327
0.9997977944859543
0.9997990113993679
0.9998002067231785
0.9998013763706531
0.9998025163114278
0.9998036225861361
0.9998046913214146
0.9998057187452241
0.9998067012024257
0.9998076351705221
0.999808517275483
0.999809344307556
0.9998101132369633
0.9998108212293839
0.9998114656611164
0.9998120441338268
0.9998125544887898
0.999812994820536
0.9998133634898346
0.9998136591359548
0.9998138806881518
0.9998140273763638
0.9998140987410962
0.9998140946425126
0.9998140152687529
0.9998138611435312
0.9998136331330716
0.9998133324524683
0.9998129606715578
0.999812519720409
0.9998120118945377
0.9998114398599505
0.9998108066581035
0.9998101157108509
0.9998093708253933
0.9998085761991952
0.9998077364247495
0.9998068564939363
0.9998059418014735
0.9998049981469042
0.9998040317345782
0.999803049170445
0.9998020574527983
0.999801063956051
0.9998000764129434
0.9997991028906364
0.9997981517306374
0.9997972314801382
0.9997963509279849
0.9997955190719201
0.9997947446047118
0.9997940362619582
0.9997934027134332
0.9997928505850502
0.9997923856811226
0.9997920127229056
0
0
0.9998000431022259
0.999799557209763
0.9997989914024845
0.9997983483802289
0.9997976306101048
0.9997968433305446
0.9997959926523972
0.9997950850385066
0.9997941275510336
0.9997931273702196
0.9997920915783037
0.9997910272021591
0.9997899411185222
0.9997888399906293
0.9997877302483199
0.999786618070607
0.9997855093694059
0.9997844097830447
0.999783324676449
0.9997822591441828
0.9997812180153532
0.9997802058597456
0.9997792269942503
0.9997782854888527
0.9997773851718104
0.999776529633818
0.9997757222310677
0.9997749660872031
0.9997742640942534
0.9997736189126677
0.9997730329706168
0.9997725084627319
0.9997720473484675
0.9997716513502658
0.9997713219516986
0.9997710603957445
0.9997708676833491
0.9997707445723945
0.9997706915771792
0.9997707089685102
0.9997707967744531
0.9997709547818097
0.9997711825383292
0.9997714793556779
0.9997718443131499
0.9997722762621104
0.9997727738311198
0.9997733354317127
0.999773959264771
0.9997746433274369
0.9997753854205098
0.9997761831562638
0.9997770339666332
0.9997779351117086
0.9997788836884989
0.9997798766399183
0.9997809107639646
0.9997819827230635
0.9997830890535737
0.999784226175433
0.9997853904019653
0.9997865779498477
0.999787784949268
0.99978900745429
0.9997902414534635
0.9997914828807092
0.9997927276265113
0.9997939715494514
0.9997952104881181
0.9997964402734139
0.9997976567412725
0.9997988557458108
0.9998000331729019
0.9998011849541689
0.9998023070813759
0.9998033956211777
0.9998044467301923
0.9998054566703327
0.9998064218243334
0.9998073387113968
0.9998082040028692
0.9998090145378601
0.9998097673387081
0.999810459626194
0.9998110888344026
0.9998116526251432
0.9998121489018342
0.9998125758227705
0.9998129318137017
0.9998132155796607
0.9998134261159912
0.9998135627185419
0.9998136249930114
0.9998136128634388
0.9998135265798501
0.9998133667250957
0.9998131342209137
0.9998128303332742
0.9998124566770655
0.9998120152201846
0.9998115082870935
0.9998109385618933
0.9998103090909394
0.9998096232850011
0.9998088849209075
0.999808098142549
0.9998072674610096
0.9998063977535243
0.9998054942607828
0.9998045625817845
0.9998036086652763
0.9998026387972966
0.9998016595840185
0.9998006779261113
0.9997997009819353
0.999798736129929
0.9997977909291357
0.9997968730346267
0.9997959900836365
0.9997951497331092
0.9997943594190489
0.9997936258571896
0.999792955293402
0.9997923530015169
0.9997918211731097
0.9997913623316311
0
0
0.9998006148740174
0.9998000462637008
0.9997994136757294
0.9997987180502695
0.9997979602640343
0.9997971438821621
0.9997962730539234
0.9997953529434922
0.9997943892516704
0.999793387891864
0.9997923549544294
0.9997912965825871
0.9997902188598675
0.9997891277740388
0.9997880291791388
0.9997869287599916
0.999785832010481
0.9997847442207742
0.9997836704686247
0.9997826156144947
0.9997815842998515
0.9997805809472282
0.9997796097610689
0.9997786747288067
0.9997777796217626
0.9997769279955874
0.9997761231900714
0.999775368328289
0.9997746663150986
0.9997740198350731
0.9997734313499734
0.9997729030958988
0.9997724370802596
0.9997720350787231
0.9997716986322771
0.9997714290445451
0.9997712273794844
0.9997710944595748
0.99977103086459
0.9997710369310304
0.9997711127522808
0.9997712581795216
0.999771472823433
0.9997717560566867
0.9997721070172243
0.999772524612304
0.9997730075232768
0.9997735542110576
0.9997741629222401
0.9997748316958055
0.9997755583703645
0.9997763405918824
0.9997771758218258
0.9997780613456866
0.9997789942818265
0.9997799715906136
0.9997809900838037
0.9997820464341503
0.9997831371852222
0.9997842587614133
0.9997854074781557
0.9997865795523249
0.9997877711128655
0.999788978211644
0.9997901968345535
0.9997914229128987
0.9997926523350775
0.9997938809585937
0.9997951046224142
0.9997963191596938
0.9997975204108743
0.9997987042371702
0.9997998665344275
0.9998010032473498
0.9998021103840625
0.9998031840309852
0.9998042203679629
0.9998052156836058
0.9998061663907676
0.9998070690420914
0.999807920345541
0.9998087171798294
0.999809456609657
0.9998101359006619
0.9998107525339868
0.9998113042203796
0.9998117889137321
0.9998122048239776
0.9998125504292772
0.9998128244874293
0.9998130260464485
0.9998131544542805
0.9998132093676141
0.9998131907597924
0.9998130989278032
0.9998129344983733
0.9998126984331758
0.999812392033184
0.9998120169421948
0.9998115751495535
0.9998110689920972
0.9998105011553226
0.99980987467375
0.9998091929304246
0.9998084596554359
0.9998076789232758
0.9998068551487349
0.9998059930809292
0.9998050977949583
0.9998041746805897
0.9998032294269663
0.9998022680019832
0.9998012966259588
0.999800321739803
0.9997993499628463
0.999798388036013
0.9997974427636802
0.999796520959312
0.999795629310637
0.9997947742388553
0.9997939618517151
0.9997931976013767
0.999792485765319
0.9997918299405819
0.9997912307090676
0.9997906887952
0
0
0.9998011828423159
0.9998005349690079
0.9997998363887544
0.9997990870511134
0.9997982868028809
0.999797437722188
0.9997965427069004
0.9997956057390212
0.9997946312870654
0.999793624250555
0.9997925898054714
0.9997915332521848
0.9997904599460442
0.9997893752405945
0.9997882844313128
0.9997871927190978
0.9997861051841227
0.9997850267648056
0.9997839622423988
0.999782916230559
0.9997818931680371
0.9997808973133728
0.9997799327409435
0.9997790033377691
0.9997781128005809
0.9997772646328531
0.9997764621416111
0.9997757084339379
0.9997750064131582
0.9997743587747275
0.9997737680019166
0.9997732363613787
0.999772765898721
0.9997723584342035
0.9997720155586798
0.9997717386299034
0.9997715287693082
0.9997713868593502
0.9997713135415064
0.9997713092149888
0.999771374036225
0.9997715079191515
0.9997717105363302
0.9997719813209001
0.9997723194693537
0.9997727239451258
0.9997731934829562
0.9997737265939927
0.9997743215715936
0.9997749764977722
0.999775689250237
0.9997764575099681
0.9997772787692861
0.9997781503403536
0.9997790693640669
0.9997800328193
0.999781037532457
0.999782080187312
0.9997831573351099
0.999784265404914
0.9997854007141951
0.9997865594796576
0.9997877378283049
0.9997889318087646
0.9997901374028694
0.9997913505375232
0.999792567096862
0.9997937829347238
0.999794993887448
0.9997961957870058
0.9997973844744701
0.9997985558138277
0.9997997057061141
0.9998008301038666
0.9998019250258602
0.9998029865720935
0.999804010938981
0.9998049944346952
0.9998059334945991
0.9998068246966936
0.9998076647770062
0.9998084506448358
0.9998091793977654
0.9998098483363606
0.9998104549784507
0.9998109970729218
0.9998114726129202
0.9998118798483983
0.9998122172979222
0.9998124837596833
0.9998126783216487
0.9998128003708117
0.9998128496015043
0.9998128260227445
0.9998127299646045
0.9998125620835878
0.9998123233670195
0.9998120151364467
0.9998116390500494
0.999811197104062
0.9998106916331801
0.9998101253099251
0.9998095011428929
0.9998088224737796
0.9998080929730183
0.9998073166337951
0.9998064977641259
0.9998056409765714
0.9998047511749882
0.9998038335376737
0.9998028934962808
0.9998019367094706
0.9998009690295603
0.9997999964620061
0.9997990251188775
0.9997980611612136
0.9997971107209622
0.9997961798246171
0.9997952743046831
0.9997943996262221
0.9997935607128082
0.9997927618871782
0.9997920062187251
0.9997912958384408
0.9997906303326501
0.9997900094496793
0
0
0.9998017329317732
0.9998010097733605
0.9998002470692255
0.9997994442007558
0.9997986002271924
0.9997977162414807
0.9997967942125621
0.9997958370675396
0.9997948483159049
0.9997938319843532
0.9997927924096932
0.9997917341451958
0.9997906618825999
0.9997895803773647
0.9997884943957047
0.9997874086757731
0.9997863278943774
0.9997852566410506
0.9997841993985687
0.9997831605277478
0.9997821442553655
0.9997811546645388
0.9997801956867941
0.9997792710951654
0.9997783844978898
0.9997775393324059
0.9997767388594492
0.9997759861571303
0.9997752841149516
0.9997746354277697
0.9997740425897543
0.9997735078884179
0.9997730333988004
0.9997726209779165
0.9997722722595613
0.9997719886495796
0.9997717713216857
0.9997716212139226
0.999771539025835
0.9997715252164056
0.9997715800028159
0.999771703360052
0.9997718950213823
0.9997721544797061
0.9997724809897741
0.9997728735712583
0.9997733310126452
0.9997738518759217
0.9997744345020044
0.9997750770168745
0.9997757773383643
0.9997765331835434
0.9997773420766602
0.9997782013575832
0.9997791081906997
0.9997800595742299
0.9997810523499165
0.9997820832130624
0.9997831487228862
0.9997842453131778
0.9997853693032407
0.9997865169091082
0.9997876842550408
0.9997888673852882
0.9997900622761385
0.9997912648482461
0.9997924709792536
0.9997936765167135
0.9997948772913077
0.9997960691303801
0.9997972478717642
0.9997984093779139
0.9997995495503109
0.9998006643441356
0.9998017497831719
0.9998028019749042
0.999803817125769
0.9998047915565018
0.9998057217175228
0.9998066042042911
0.9998074357725559
0.9998082133534232
0.9998089340681561
0.9998095952426271
0.9998101944213313
0.9998107293808816
0.9998111981428981
0.999811598986219
0.9998119304583513
0.9998121913861067
0.9998123808853487
0.9998124983698107
0.9998125435589323
0.9998125164846844
0.9998124174973455
0.9998122472702116
0.9998120068032134
0.9998116974254224
0.9998113207964218
0.9998108789065033
0.99981037407565
0.9998098089512286
0.9998091865042908
0.9998085100243418
0.9998077831123792
0.999807009671933
0.9998061938977625
0.9998053402617934
0.9998044534957647
0.9998035385698772
0.9998026006666864
0.9998016451497294
0.9998006775259365
0.9997997033999053
0.9997987284197155
0.9997977582169939
0.999796798332356
0.9997958541190204
0.9997949306449535
0.9997940325809165
0.9997931639673515
0.9997923281426081
0.999791527323668
0.9997907627205338
0.999790033200469
0.9997893379943257
0
0
0.9998022536684704
0.9998014594002166
0.9998006350195491
0.9997997795426227
0.9997988915419544
0.999797971458798