# vtk DataFile Version 2.0
2D-ADE data file 
ASCII
DATASET RECTILINEAR_GRID
DIMENSIONS 128 128 1 
X_COORDINATES 128 int
0 1 2 3 4 5 6 7 8 9 10 11 12 13 14 15 16 17 18 19 20 21 22 23 24 25 26 27 28 29 30 31 32 33 34 35 36 37 38 39 40 41 42 43 44 45 46 47 48 49 50 51 52 53 54 55 56 57 58 59 60 61 62 63 64 65 66 67 68 69 70 71 72 73 74 75 76 77 78 79 80 81 82 83 84 85 86 87 88 89 90 91 92 93 94 95 96 97 98 99 100 101 102 103 104 105 106 107 108 109 110 111 112 113 114 115 116 117 118 119 120 121 122 123 124 125 126 127 
Y_COORDINATES 128 int
0 1 2 3 4 5 6 7 8 9 10 11 12 13 14 15 16 17 18 19 20 21 22 23 24 25 26 27 28 29 30 31 32 33 34 35 36 37 38 39 40 41 42 43 44 45 46 47 48 49 50 51 52 53 54 55 56 57 58 59 60 61 62 63 64 65 66 67 68 69 70 71 72 73 74 75 76 77 78 79 80 81 82 83 84 85 86 87 88 89 90 91 92 93 94 95 96 97 98 99 100 101 102 103 104 105 106 107 108 109 110 111 112 113 114 115 116 117 118 119 120 121 122 123 124 125 126 127 
Z_COORDINATES 1 int
0
POINT_DATA 16384
SCALARS density double
LOOKUP_TABLE default
0
0
0
0
0
0
0
0
0
0
0
0
0
0
0
0
0
0
0
0
0
0
0
0
0
0
0
0
0
0
0
0
0
0
0
0
0
0
0
0
0
0
0
0
0
0
0
0
0
0
0
0
0
0
0
0
0
0
0
0
0
0
0
0
0
0
0
0
0
0
0
0
0
0
0
0
0
0
0
0
0
0
0
0
0
0
0
0
0
0
0
0
0
0
0
0
0
0
0
0
0
0
0
0
0
0
0
0
0
0
0
0
0
0
0
0
0
0
0
0
0
0
0
0
0
0
0
0
0
0.9996785725596842
0.9996794100802942
0.9996799837984564
0.9996802026994188
0.9996803415225867
0.9996804876988635
0.999680664329119
0.999680896000063
0.999681207225165
0.9996816157725731
0.999682133823381
0.9996827699535837
0.9996835299031905
0.9996844169795652
0.9996854324723603
0.9996865760171967
0.9996878458728212
0.9996892391387786
0.9996907519369995
0.9996923795676529
0.9996941166454602
0.9996959572212476
0.9996978948918548
0.9996999229001847
0.9997020342265233
0.9997042216719001
0.9997064779341179
0.9997087956769771
0.9997111675931981
0.9997135864615219
0.9997160451984558
0.9997185369051101
0.9997210549095485
0.9997235928050386
0.9997261444845502
0.9997287041718032
0.9997312664491238
0.9997338262823066
0.9997363790426446
0.9997389205262299
0.9997414469705815
0.9997439550686262
0.9997464419799985
0.9997489053396207
0.9997513432634663
0.9997537543514224
0.9997561376871293
0.9997584928346849
0.9997608198320996
0.9997631191814067
0.9997653918353371
0.9997676391805168
0.9997698630171512
0.9997720655352267
0.9997742492872845
0.999776417157874
0.9997785723298458
0.9997807182476919
0.9997828585781864
0.9997849971686328
0.9997871380030633
0.9997892851567755
0.9997914427496282
0.9997936148985376
0.9997958056696398
0.9997980190305903
0.9998002588034824
0.999802528618848
0.9998048318711998
0.9998071716765474
0.9998095508322887
0.9998119717798486
0.9998144365703852
0.9998169468338532
0.9998195037516521
0.9998221080330426
0.9998247598954746
0.9998274590488998
0.9998302046841183
0.9998329954651508
0.9998358295255938
0.9998387044688863
0.9998416173723796
0.9998445647950911
0.9998475427889995
0.9998505469137378
0.9998535722545393
0.9998566134432901
0.999859664682562
0.999862719772514
0.999865772140569
0.9998688148738029
0.9998718407540124
0.9998748422954624
0.9998778117853359
0.9998807413269686
0.9998836228859576
0.9998864483392871
0.9998892095276353
0.9998918983110582
0.9998945066282743
0.9998970265597877
0.9998994503951303
0.9999017707045191
0.9999039804152909
0.9999060728935459
0.9999080420316012
0.9999098823421039
0.9999115890600597
0.9999131582548203
0.9999145869554594
0.9999158732946042
0.999917016676931
0.9999180179826287
0.9999188798304364
0.9999196069290912
0.9999202064733757
0.9999206885067686
0.9999210666836235
0.9999213604380421
0.9999215962222845
0.9999217995777919
0.9999219927848968
0.9999222710977199
0.9999229468103291
0.999923912687226
0
0
0.9996794372261153
0.9996798198282327
0.9996801696768759
0.9996804338663599
0.9996806625036668
0.9996808821551992
0.9996811336626263
0.999681444311511
0.9996818329852672
0.999682314269377
0.9996828996799444
0.9996835975260983
0.9996844133455371
0.9996853504159512
0.9996864101422531
0.9996875923420204
0.9996888954879947
0.9996903169151162
0.9996918529958381
0.9996934992906462
0.9996952506804397
0.9996971014848531
0.9996990455691275
0.9997010764412929
0.999703187340885
0.9997053713200581
0.9997076213177416
0.999709930227386
0.9997122909587821
0.9997146964944063
0.9997171399407169
0.9997196145748055
0.9997221138867834
0.9997246316182458
0.9997271617971261
0.9997296987692149
0.999732237226564
0.99973477223296
0.9997372992466093
0.9997398141401128
0.999742313217789
0.9997447932303462
0.9997472513868745
0.9997496853641031
0.9997520933128311
0.9997544738614317
0.9997568261163197
0.99975914965926
0.999761444541405
0.9997637112739666
0.9997659508154338
0.9997681645552913
0.9997703542942157
0.999772522220763
0.9997746708846253
0.9997768031665479
0.9997789222450808
0.9997810315603629
0.9997831347752018
0.9997852357337502
0.9997873384181245
0.9997894469033535
0.999791565311077
0.9997936977624295
0.9997958483305865
0.9997980209934286
0.9998002195868132
0.9998024477589117
0.9998047089260771
0.9998070062306632
0.9998093425012079
0.999811720215341
0.9998141414657492
0.9998166079294779
0.9998191208408007
0.9998216809678512
0.9998242885931399
0.9998269434980565
0.9998296449513864
0.9998323917018452
0.9998351819745896
0.999838013471626
0.9998408833760171
0.9998437883597611
0.9998467245952043
0.999849687769838
0.9998526731043329
0.9998556753736642
0.9998586889311954
0.9998617077356045
0.9998647253805498
0.9998677351270114
0.9998707299382621
0.9998737025174528
0.999876645347835
0.999879550735671
0.9998824108559163
0.9998852178007882
0.9998879636313657
0.9998906404323946
0.9998932403704898
0.9998957557559661
0.9998981791085515
0.9999005032272807
0.999902721264936
0.9999048268074899
0.999906813959185
0.999908677434129
0.9999104126557347
0.9999120158659025
0.9999134842467011
0.9999148160587953
0.9999160108035354
0.9999170694156578
0.9999179944893755
0.9999187905447748
0.9999194644009308
0.9999200256859752
0.9999204872505345
0.9999208649106315
0.9999211787133707
0.9999214576745987
0.9999217456632186
0.9999220699613349
0.9999224826381099
0.9999229207505154
0
0
0.9996802511282178
0.9996803715078263
0.9996805728632234
0.9996808319216746
0.999681078783281
0.9996813361847837
0.9996816399922406
0.9996820080527082
0.999682454738655
0.9996829929846611
0.9996836329920752
0.9996843820119605
0.9996852449792778
0.9996862248820879
0.999687322996745
0.9996885391127353
0.9996898717498022
0.999691318343741
0.9996928754052862
0.9996945386598799
0.9996963031726295
0.9996981634607577
0.9997001135955637
0.9997021472954575
0.9997042580111705
0.9997064390039119
0.9997086834170735
0.9997109843419897
0.9997133348781934
0.999715728188574
0.9997181575498222
0.9997206163985144
0.9997230983731754
0.9997255973526262
0.9997281074908881
0.9997306232488856
0.9997331394231458
0.9997356511716526
0.9997381540369737
0.9997406439667312
0.9997431173314498
0.99974557093978
0.9997480020510551
0.9997504083851155
0.9997527881293116
0.9997551399425725
0.9997574629564269
0.9997597567728591
0.9997620214588785
0.9997642575377079
0.9997664659765095
0.9997686481705889
0.9997708059240711
0.9997729414270511
0.999775057229299
0.9997771562106204
0.9997792415480319
0.9997813166799635
0.9997833852677459
0.9997854511546815
0.9997875183230495
0.999789590849428
0.999791672858757
0.9997937684775742
0.9997958817868967
0.9997980167752145
0.9998001772920732
0.9998023670027077
0.9998045893441955
0.9998068474835421
0.9998091442781212
0.9998114822388215
0.9998138634962366
0.9998162897701818
0.9998187623427663
0.9998212820352119
0.9998238491885546
0.9998264636483138
0.9998291247531758
0.9998318313276828
0.9998345816788914
0.999837373596924
0.999840204359311
0.9998430707389909
0.9998459690158389
0.999848894991564
0.9998518440078281
0.9998548109674316
0.9998577903584347
0.9998607762810855
0.9998637624774482
0.9998667423636589
0.9998697090647446
0.9998726554519907
0.9998755741828498
0.9998784577434375
0.9998812984936717
0.9998840887151484
0.9998868206618776
0.9998894866140214
0.9998920789347987
0.9998945901307604
0.9998970129156591
0.9998993402781763
0.9999015655538496
0.9999036825016104
0.9999056853855082
0.9999075690623841
0.9999093290766443
0.9999109617637707
0.9999124643646558
0.9999138351530332
0.9999150735803783
0.9999161804466262
0.9999171581012558
0.9999180106472977
0.9999187441496451
0.9999193669937748
0.9999198905492754
0.9999203288684362
0.9999206970891479
0.9999210138073684
0.999921317804517
0.9999216328210077
0.9999218732314787
0.9999220103438027
0
0
0.9996809220094635
0.9996810001105908
0.9996811492558789
0.999681340900811
0.9996815679733806
0.9996818455364663
0.9996821803030932
0.999682584531894
0.9996830720464368
0.9996836532267162
0.9996843358370157
0.9996851258356314
0.9996860274235359
0.9996870430596304
0.999688173663161
0.9996894188229067
0.999690776967536
0.9996922455152851
0.9996938210132851
0.9996954992645493
0.9996972754426542
0.9996991441960219
0.9997010997434944
0.999703135962214
0.9997052464685461
0.9997074246926647
0.9997096639473018
0.9997119574910809
0.9997142985868115
0.9997166805550992
0.9997190968235878
0.9997215409721552
0.9997240067743478
0.9997264882353186
0.9997289796265137
0.9997314755173073
0.9997339708037605
0.999736460734637
0.999738940934774
0.9997414074258579
0.9997438566446308
0.999746285458504
0.9997486911785352
0.9997510715696906
0.9997534248582934
0.999755749736551
0.9997580453640303
0.9997603113659675
0.9997625478282919
0.9997647552892606
0.9997669347276229
0.9997690875472649
0.9997712155583063
0.9997733209546813
0.9997754062882533
0.9997774744395872
0.9997795285855305
0.999781572163811
0.9997836088349158
0.9997856424415461
0.9997876769660008
0.9997897164858653
0.9997917651284334
0.9997938270242921
0.9997959062605414
0.9997980068341094
0.9998001326056478
0.9998022872544643
0.9998044742349509
0.9998066967349426
0.9998089576364014
0.9998112594787991
0.9998136044255295
0.9998159942336237
0.9998184302270168
0.9998209132735412
0.9998234437657938
0.9998260216059598
0.9998286461946396
0.9998313164236725
0.9998340306729215
0.9998367868109408
0.9998395821994251
0.9998424137013091
0.9998452776923781
0.9998481700762376
0.9998510863024799
0.999854021387902
0.9998569699406238
0.9998599261869769
0.9998628840010552
0.9998658369368286
0.9998687782627623
0.9998717009988929
0.9998745979563577
0.9998774617793875
0.9998802849898024
0.9998830600340856
0.9998857793331175
0.9998884353346932
0.9998910205689455
0.9998935277068414
0.9998959496219307
0.9998982794555626
0.9999005106858365
0.9999026372006219
0.9999046533750953
0.9999065541543799
0.9999083351420193
0.9999099926953031
0.9999115240291861
0.9999129273307678
0.9999142018840765
0.9999153482025342
0.9999163681806484
0.9999172652868041
0.999918044745907
0.9999187135054737
0.999919280234245
0.99991975622166
0.9999201563109538
0.9999204931681928
0.999920772518596
0.9999210096945214
0.9999211937795179
0.999921289345093
0
0
0.9996816574761278
0.9996816901842963
0.999681777843558
0.9996819174423245
0.9996821258702766
0.9996824008977042
0.9996827455401522
0.999683170810352
0.9996836855736624
0.9996842968789208
0.9996850108755069
0.9996858323224009
0.9996867643833331
0.9996878087804891
0.9996889659541377
0.999690235174757
0.999691614663268
0.9996931017183179
0.9996946928365134
0.9996963838225473
0.9996981698913325
0.9997000457630687
0.9997020057515084
0.999704043845829
0.9997061537866172
0.9997083291363756
0.9997105633448984
0.9997128498098145
0.9997151819325972
0.9997175531703163
0.9997199570833992
0.9997223873796661
0.9997248379548791
0.9997273029300278
0.9997297766855613
0.9997322538927389
0.9997347295422357
0.9997371989701268
0.9997396578813104
0.9997421023704189
0.9997445289402174
0.9997469345174528
0.9997493164661099
0.9997516725979749
0.9997540011804091
0.9997563009412146
0.9997585710704612
0.9997608112191565
0.9997630214946323
0.9997652024525495
0.9997673550854349
0.9997694808076981
0.9997715814371104
0.9997736591727566
0.9997757165695396
0.9997777565093272
0.9997797821689199
0.9997817969850326
0.9997838046165551
0.99978580890439
0.9997878138292137
0.9997898234675421
0.9997918419465175
0.9997938733978566
0.9997959219114182
0.9997979914888582
0.9998000859978491
0.9998022091273222
0.9998043643441906
0.9998065548519818
0.9998087835517789
0.9998110530058456
0.9998133654042528
0.9998157225348014
0.9998181257564686
0.999820575976571
0.9998230736317815
0.9998256186730917
0.9998282105547589
0.9998308482272448
0.9998335301340951
0.9998362542126982
0.999839017898809
0.9998418181347121
0.9998446513808852
0.9998475136309998
0.9998504004301052
0.9998533068958346
0.9998562277424818
0.9998591573078174
0.9998620895825063
0.999865018242046
0.9998679366811246
0.9998708380503615
0.9998737152953895
0.9998765611982742
0.999879368421293
0.9998821295531098
0.9998848371574074
0.9998874838240508
0.9998900622228842
0.9998925651602611
0.9998949856384393
0.9998973169179916
0.9998995525834002
0.9999016866120529
0.999903713446897
0.9999056280731196
0.9999074260993184
0.9999091038435299
0.999910658424284
0.9999120878576043
0.9999133911622942
0.999914568470105
0.999915621124698
0.9999165517686553
0.9999173644842226
0.9999180649314573
0.9999186600755242
0.9999191575937556
0.9999195669253819
0.999919899711144
0.9999201580170469
0.9999203375699415
0.9999204567088971
0.9999205103772034
0
0
0.9996824702123622
0.9996824236048261
0.9996824475904474
0.99968254769583
0.9996827269716408
0.9996829850681476
0.9996833285116963
0.9996837625849135
0.9996842920625991
0.9996849223617631
0.9996856580265223
0.9996865022791553
0.9996874571900302
0.9996885237303138
0.9996897017747118
0.9996909901717993
0.9996923868474511
0.9996938889048729
0.9996954927199879
0.9996971940350117
0.9996989880486635
0.9997008695014369
0.9997028327557973
0.9997048718715413
0.9997069806764567
0.9997091528324137
0.9997113818970523
0.9997136613812598
0.9997159848026353
0.9997183457351422
0.9997207378551569
0.9997231549841176
0.9997255911279695
0.9997280405135901
0.9997304976223665
0.9997329572210607
0.9997354143900843
0.9997378645492656
0.9997403034811658
0.9997427273519593
0.9997451327298695
0.9997475166011227
0.9997498763833372
0.9997522099362682
0.9997545155697896
0.9997567920489876
0.9997590385962433
0.9997612548901662
0.9997634410612667
0.9997655976842513
0.9997677257668699
0.9997698267352502
0.9997719024157007
0.9997739550130065
0.9997759870852758
0.9997780015154492
0.9997800014796264
0.9997819904124254
0.9997839719696161
0.9997859499883426
0.9997879284452634
0.9997899114130039
0.9997919030153193
0.999793907381417
0.9997959285998911
0.9997979706727304
0.9998000374698784
0.9998021326848027
0.999804259791522
0.9998064220035296
0.9998086222350012
0.999810863064662
0.9998131467026415
0.999815474960596
0.9998178492253347
0.9998202704361436
0.999822739065944
0.999825255106374
0.9998278180568464
0.9998304269175721
0.9998330801865206
0.9998357758602379
0.9998385114384208
0.9998412839321164
0.9998440898754036
0.9998469253403991
0.9998497859554233
0.999852666926164
0.9998555630596812
0.999858468791106
0.9998613782129031
0.9998642851065823
0.9998671829767661
0.9998700650875412
0.9998729245010457
0.9998757541182656
0.9998785467220277
0.9998812950222072
0.9998839917031684
0.9998866294734856
0.9998892011179848
0.9998916995521695
0.9998941178790898
0.9998964494487175
0.9998986879199113
0.9999008273250457
0.999902862137384
0.9999047873412363
0.9999065985049712
0.9999082918570856
0.9999098643651145
0.999911313815554
0.9999126388930185
0.9999138392621011
0.9999149156511914
0.9999158698973197
0.9999167049129978
0.9999174247139409
0.9999180345918725
0.999918540584261
0.9999189477171208
0.9999192613552895
0.9999194881748232
0.9999196266339798
0.9999196795038962
0.9999196524731636
0
0
0.9996833226882261
0.9996831928797507
0.9996831541648461
0.9996832076793855
0.9996833510462864
0.9996835876113062
0.9996839207538721
0.9996843526884356
0.9996848870334027
0.9996855272889097
0.9996862760873327
0.9996871353530861
0.9996881061912307
0.9996891887644943
0.9996903823103434
0.9996916852057118
0.9996930950294562
0.9996946086317264
0.9996962222120702
0.9996979313992054
0.9996997313287225
0.9997016167181606
0.9997035819391654
0.9997056210862686
0.9997077280420388
0.999709896538553
0.9997121202152144
0.9997143926729899
0.9997167075251497
0.9997190584446463
0.9997214392082711
0.9997238437377415
0.9997262661378691
0.9997287007319494
0.999731142094514
0.9997335850815509
0.9997360248582807
0.9997384569245586
0.9997408771379263
0.9997432817343238
0.9997456673464321
0.999748031019588
0.9997503702251997
0.9997526828715512
0.9997549673118843
0.999757222349626
0.9997594472406293
0.9997616416922904
0.9997638058594266
0.9997659403367997
0.9997680461482079
0.9997701247320838
0.9997721779235834
0.999774207933179
0.9997762173218242
0.9997782089727948
0.9997801860603652
0.9997821520155226
0.9997841104889781
0.999786065311764
0.9997880204537611
0.9997899799805402
0.9997919480089135
0.9997939286616431
0.9997959260217506
0.9997979440868974
0.999799986724297
0.9998020576266232
0.9998041602693581
0.9998062978700123
0.9998084733496088
0.9998106892968046
0.999812947934971
0.9998152510925165
0.9998176001766955
0.9998199961510853
0.9998224395168749
0.9998249302980623
0.999827468030601
0.999830051755498
0.9998326800158353
0.9998353508576274
0.999838061834424
0.9998408100155236
0.9998435919976506
0.9998464039199404
0.9998492414820646
0.9998520999653261
0.9998549742565642
0.9998578588747157
0.9998607479998884
0.9998636355048209
0.9998665149886264
0.9998693798127238
0.9998722231388961
0.9998750379694168
0.9998778171892183
0.9998805536100768
0.999883240016806
0.9998858692154634
0.9998884340835622
0.9998909276222945
0.9998933430107622
0.9998956736621947
0.9998979132821206
0.9999000559284364
0.9999020960732858
0.9999040286666133
0.999905849201026
0.9999075537774019
0.9999091391708927
0.9999106028967457
0.9999119432718294
0.9999131594640186
0.9999142515321174
0.9999152204683134
0.9999160681875456
0.9999167973583369
0.9999174112545736
0.9999179139340264
0.9999183093813405
0.9999185997370108
0.9999187883930281
0.9999188786184642
0.9999188671202592
0.9999187548623119
0
0
0.999684192444392
0.999683983820624
0.9996838809997044
0.9996838824111497
0.9996839871005719
0.9996841966689177
0.9996845117087912
0.9996849339665238
0.9996854655230212
0.9996861079327861
0.9996868624908359
0.9996877300264003
0.9996887106442262
0.9996898036945536
0.9996910077894353
0.9996923208143382
0.9996937399627212
0.999695261792252
0.9996968822878486
0.9996985969265321
0.9997004007435022
0.9997022883981285
0.9997042542384349
0.9997062923633355
0.99970839668229
0.9997105609721595
0.9997127789311128
0.9997150442295363
0.9997173505579595
0.999719691672048
0.99972206143475
0.9997244538556948
0.9997268631279518
0.9997292836622501
0.9997317101187712
0.9997341374365822
0.9997365608607863
0.9997389759674173
0.9997413786861084
0.9997437653205031
0.999746132566384
0.9997484775274413
0.9997507977285942
0.9997530911267578
0.9997553561189261
0.9997575915474408
0.9997597967023053
0.9997619713204103
0.9997641155815431
0.9997662301010763
0.9997683159192482
0.9997703744869734
0.9997724076481731
0.9997744176186327
0.9997764069614523
0.9997783785591964
0.999780335582901
0.9997822814581359
0.9997842198283777
0.9997861545159861
0.9997880894811179
0.9997900287789614
0.9997919765156842
0.9997939368035359
0.9997959137155484
0.9997979112402959
0.9997999332371719
0.9998019833926516
0.9998040651779678
0.9998061818086414
0.9998083362062498
0.9998105309628031
0.9998127683080603
0.9998150500800539
0.9998173776990759
0.9998197521453068
0.9998221739402312
0.9998246431319374
0.9998271592843448
0.9998297214703669
0.9998323282689717
0.9998349777660709
0.9998376675591301
0.9998403947653786
0.999843156033467
0.9998459475584106
0.9998487650996541
0.9998516040020811
0.9998544592198003
0.9998573253425486
0.9998601966245549
0.9998630670157331
0.9998659301950761
0.9998687796061482
0.999871608494589
0.9998744099475493
0.9998771769350036
0.9998799023528854
0.999882579068003
0.9998851999646943
0.9998877579931722
0.9998902462195078
0.9998926578771773
0.9998949864200809
0.9998972255769012
0.9998993694066134
0.999901412354884
0.9999033493110148
0.9999051756650034
0.9999068873638636
0.9999084809655964
0.999909953689411
0.999911303461749
0.9999125289528068
0.9999136295871403
0.9999146055277683
0.9999154576679132
0.9999161875736934
0.9999167971684862
0.9999172884849967
0.9999176639889118
0.9999179255899642
0.9999180737257352
0.9999181099673301
0.9999180329055849
0.9999178405026077
0
0
0.999685065809342
0.9996847803236203
0.9996846123818853
0.9996845603718765
0.9996846233880258
0.9996848008559012
0.9996850926538198
0.9996854994990559
0.9996860218114599
0.9996866599627623
0.9996874141666601
0.999688284158118
0.9996892691277075
0.9996903676928559
0.9996915778545113
0.9996928969950694
0.9996943219084079
0.9996958488404546
0.9996974735362866
0.999699191293571
0.999700997019352
0.9997028852876132
0.999704850396446
0.9997068864241438
0.9997089872836412
0.9997111467748828
0.9997133586348739
0.999715616585286
0.9997179143775465
0.9997202458354099
0.9997226048950278
0.999724985642583
0.9997273823495463
0.9997297895056358
0.9997322018495376
0.9997346143974521
0.9997370224695004
0.9997394217140124
0.9997418081296918
0.999744178085626
0.9997465283390923
0.9997488560510751
0.9997511587994004
0.9997534345893674
0.9997556818617446
0.9997578994979945
0.9997600868225845
0.9997622436022447
0.9997643700420468
0.9997664667781926
0.9997685348674301
0.9997705757730327
0.999772591347324
0.9997745838107658
0.9997765557276662
0.9997785099786158
0.9997804497298035
0.9997823783994174
0.9997842996213723
0.9997862172066583
0.9997881351026449
0.9997900573507098
0.9997919880425907
0.9997939312758892
0.9997958911091733
0.9997978715171257
0.9997998763462006
0.9998019092712468
0.999803973753526
0.9998060730005615
0.9998082099281959
0.9998103871252373
0.999812606821005
0.9998148708560659
0.9998171806563945
0.9998195372111521
0.9998219410542252
0.9998243922496199
0.9998268903807659
0.9998294345437279
0.9998320233443022
0.999834654898915
0.9998373268392367
0.9998400363203673
0.9998427800324639
0.9998455542156268
0.9998483546778911
0.9998511768161364
0.999854015639741
0.9998568657968144
0.9998597216028415
0.9998625770715933
0.9998654259481657
0.9998682617440198
0.9998710777739215
0.9998738671946803
0.999876623045596
0.9998793382905403
0.9998820058615897
0.9998846187041286
0.9998871698233335
0.9998896523319287
0.9998920594990831
0.9998943848002745
0.9998966219679081
0.9998987650424087
0.9999008084234136
0.9999027469205064
0.9999045758027937
0.9999062908465499
0.9999078883796464
0.9999093653199497
0.9999107192044941
0.9999119482096347
0.9999130511583811
0.9999140274909815
0.9999148771895404
0.9999156007235885
0.99991619895979
0.9999166727812699
0.9999170229622957
0.9999172504812658
0.9999173552039397
0.9999173363919013
0.9999171928717361
0.9999169226772294
0
0
0.99968592971706
0.9996855686545375
0.9996853359690032
0.9996852300030918
0.9996852487448172
0.9996853908324328
0.9996856555102149
0.9996860421587395
0.9996865501503754
0.9996871789201024
0.9996879276310717
0.9996887950924113
0.9996897797153377
0.9996908794290016
0.9996920916447798
0.999693413259813
0.9996948406721611
0.9996963698072586
0.999697996156036
0.9996997148198223
0.9997015205585162
0.9997034078406126
0.9997053708940071
0.99970740375654
0.999709500325553
0.9997116544060097
0.9997138597568613
0.9997161101354529
0.9997183993398354
0.9997207212489246
0.9997230698604905
0.9997254393269912
0.9997278239892826
0.9997302184082468
0.9997326173943766
0.9997350160353491
0.9997374097216067
0.9997397941699454
0.9997421654450889
0.9997445199792047
0.999746854589297
0.999749166492385
0.9997514533183588
0.9997537131203941
0.9997559443827796
0.9997581460260218
0.9997603174090783
0.9997624583285813
0.9997645690149208
0.9997666501250809
0.9997687027321349
0.9997707283113477
0.999772728722858
0.9997747061909606
0.999776663280042
0.9997786028672802
0.9997805281122554
0.99978244242367
0.999784349423425
0.9997862529083396
0.9997881568098393
0.9997900651519862
0.9997919820082382
0.9997939114573637
0.9997958575389517
0.9997978242089625
0.9997998152957728
0.9998018344571722
0.9998038851387323
0.9998059705339826
0.9998080935467699
0.9998102567561749
0.9998124623842993
0.9998147122672111
0.9998170078292836
0.9998193500611231
0.9998217395012257
0.999824176221467
0.9998266598164686
0.9998291893968584
0.9998317635863861
0.9998343805228342
0.9998370378626107
0.9998397327889138
0.9998424620233066
0.9998452218405479
0.9998480080864933
0.9998508161989004
0.9998536412309423
0.999856477877265
0.999859320502406
0.999862163171422
0.9998649996825673
0.9998678236018874
0.999870628299598
0.9998734069881289
0.9998761527617219
0.99987885863747
0.9998815175976922
0.9998841226335186
0.9998866667895572
0.9998891432094876
0.999891545182393
0.9998938661896051
0.9998960999517682
0.9998982404757562
0.9999002821009877
0.9999022195445494
0.9999040479442688
0.9999057628985633
0.9999073605018896
0.9999088373743455
0.9999101906816379
0.9999114181402106
0.9999125180086172
0.9999134890658896
0.9999143305461482
0.9999150420201319
0.9999156233288807
0.9999160744809112
0.9999163952583116
0.9999165853122595
0.9999166440006931
0.9999165698657861
0.9999163605792787
0.9999160142387801
0
0
0.9996867718454214
0.9996863372184476
0.9996860407919692
0.9996858804761336
0.9996858535012902
0.9996859580634286
0.9996861925103195
0.9996865553062438
0.9996870450413757
0.999687660230929
0.9996883991719056
0.9996892599140503
0.9996902401594778
0.9996913372041252
0.9996925479196626
0.9996938687451448
0.9996952956927333
0.9996968243695084
0.9996984500087828
0.9997001675070571
0.99970197146526
0.9997038562327658
0.9997058159526777
0.9997078446073695
0.9997099360636246
0.9997120841168599
0.9997142825340538
0.9997165250951167
0.9997188056325371
0.9997211180691998
0.9997234564543288
0.9997258149975292
0.9997281881009358
0.9997305703894795
0.9997329567392909
0.9997353423042468
0.9997377225406643
0.9997400932301184
0.9997424505003554
0.9997447908442365
0.9997471111366425
0.9997494086492338
0.9997516810629555
0.9997539264781554
0.9997561434221722
0.9997583308542503
0.9997604881676266
0.9997626151886607
0.9997647121728626
0.9997667797977194
0.9997688191522257
0.9997708317230631
0.9997728193774013
0.99977478434234
0.9997767291810475
0.999778656765699
0.9997805702473627
0.9997824730230284
0.9997843687000253
0.9997862610581013
0.9997881540095026
0.9997900515574013
0.999791957753069
0.9997938766522089
0.9997958122708832
0.9997977685414726
0.999799749269126
0.9998017580891329
0.9998037984256609
0.9998058734522643
0.9998079860545542
0.9998101387953939
0.9998123338829311
0.9998145731417587
0.9998168579874331
0.9998191894045524
0.9998215679285305
0.9998239936311764
0.9998264661101238
0.9998289844821331
0.9998315473802214
0.9998341529545726
0.9998367988771143
0.9998394823496427
0.9998422001153496
0.9998449484735794
0.9998477232976473
0.9998505200555295
0.999853333833238
0.999856159360701
0.9998589910399611
0.9998618229755221
0.9998646490066795
0.9998674627416748
0.9998702575935341
0.9998730268174363
0.999875763549492
0.999878460846777
0.9998811117284948
0.9998837092181081
0.9998862463862681
0.9998887163943548
0.9998911125383866
0.9998934282930293
0.9998956573553662
0.9998977936880055
0.9998998315609827
0.9999017655918199
0.9999035907829413
0.999905302555328
0.9999068967767397
0.9999083697829365
0.9999097183906025
0.9999109398979484
0.9999120320659637
0.999912993083548
0.9999138215228124
0.999914516250285
0.999915076293042
0.999915500795127
0.9999157888443072
0.9999159392388624
0.9999159504991949
0.9999158208443107
0.9999155472004909
0.9999151272680817
0
0
0.9996875813939172
0.9996870756725342
0.9996867168090745
0.9996865023224095
0.9996864290225109
0.9996864945495589
0.9996866965188983
0.9996870327587153
0.9996875011140671
0.9996880993312597
0.9996888250116185
0.9996896755294865
0.9996906479559761
0.9996917390291038
0.9996929451285955
0.9996942622641237
0.9996956860817605
0.9996972118815881
0.999698834642748
0.9997005490549996
0.9997023495549212
0.999704230364876
0.999706185533539
0.9997082089771501
0.9997102945207741
0.9997124359390157
0.9997146269957936
0.9997168614828953
0.9997191332571147
0.999721436275844
0.9997237646310381
0.9997261125815077
0.999728474583523
0.999730845319717
0.9997332197262874
0.999735593018485
0.9997379607143776
0.9997403186568488
0.9997426630337914
0.9997449903964211
0.9997472976756275
0.9997495821962522
0.9997518416891739
0.9997540743010668
0.9997562786016843
0.9997584535885186
0.9997605986886846
0.999762713757894
0.9997647990763772
0.9997668553416499
0.9997688836580323
0.999770885522863
0.9997728628093833
0.9997748177463098
0.9997767528941436
0.9997786711183285
0.9997805755593937
0.9997824696002794
0.9997843568310818
0.9997862410114967
0.9997881260312772
0.999790015869069
0.9997919145499987
0.9997938261024313
0.9997957545143199
0.9997977036895878
0.9997996774049869
0.9998016792678629
0.9998037126752645
0.9998057807747984
0.9998078864276193
0.9998100321739093
0.9998122202011637
0.9998144523155696
0.9998167299167116
0.9998190539757965
0.9998214250175511
0.9998238431058875
0.999826307833395
0.9998288183146787
0.9998313731835057
0.9998339705937073
0.9998366082237365
0.9998392832847529
0.999841992532095
0.9998447322799685
0.9998474984191761
0.9998502864376965
0.9998530914439266
0.999855908192389
0.9998587311117196
0.99986155433475
0.9998643717305017
0.9998671769379308
0.9998699634012459
0.999872724406643
0.9998754531203035
0.9998781426274819
0.9998807859725232
0.9998833761996264
0.9998859063941525
0.9998883697242474
0.999890759482517
0.9998930691274386
0.9998952923241343
0.9998974229840604
0.9998994553030582
0.9999013837970736
0.9999032033346906
0.9999049091655414
0.9999064969433067
0.9999079627412758
0.9999093030585833
0.9999105148164338
0.9999115953405961
0.9999125423227437
0.9999133537671737
0.9999140279346388
0.9999145632353187
0.9999149581198354
0.9999152110164873
0.9999153201917258
0.9999152835123281
0.9999150987357213
0.999914762460443
0.9999142720401596
0
0
0.9996883488320213
0.9996877746899197
0.999687355031372
0.999687087118875
0.9996869673919709
0.9996869929808447