# vtk DataFile Version 2.0
2D-ADE data file 
ASCII
DATASET RECTILINEAR_GRID
DIMENSIONS 128 128 1 
X_COORDINATES 128 int
0 1 2 3 4 5 6 7 8 9 10 11 12 13 14 15 16 17 18 19 20 21 22 23 24 25 26 27 28 29 30 31 32 33 34 35 36 37 38 39 40 41 42 43 44 45 46 47 48 49 50 51 52 53 54 55 56 57 58 59 60 61 62 63 64 65 66 67 68 69 70 71 72 73 74 75 76 77 78 79 80 81 82 83 84 85 86 87 88 89 90 91 92 93 94 95 96 97 98 99 100 101 102 103 104 105 106 107 108 109 110 111 112 113 114 115 116 117 118 119 120 121 122 123 124 125 126 127 
Y_COORDINATES 128 int
0 1 2 3 4 5 6 7 8 9 10 11 12 13 14 15 16 17 18 19 20 21 22 23 24 25 26 27 28 29 30 31 32 33 34 35 36 37 38 39 40 41 42 43 44 45 46 47 48 49 50 51 52 53 54 55 56 57 58 59 60 61 62 63 64 65 66 67 68 69 70 71 72 73 74 75 76 77 78 79 80 81 82 83 84 85 86 87 88 89 90 91 92 93 94 95 96 97 98 99 100 101 102 103 104 105 106 107 108 109 110 111 112 113 114 115 116 117 118 119 120 121 122 123 124 125 126 127 
Z_COORDINATES 1 int
0
POINT_DATA 16384
SCALARS density double
LOOKUP_TABLE default
0
0
0
0
0
0
0
0
0
0
0
0
0
0
0
0
0
0
0
0
0
0
0
0
0
0
0
0
0
0
0
0
0
0
0
0
0
0
0
0
0
0
0
0
0
0
0
0
0
0
0
0
0
0
0
0
0
0
0
0
0
0
0
0
0
0
0
0
0
0
0
0
0
0
0
0
0
0
0
0
0
0
0
0
0
0
0
0
0
0
0
0
0
0
0
0
0
0
0
0
0
0
0
0
0
0
0
0
0
0
0
0
0
0
0
0
0
0
0
0
0
0
0
0
0
0
0
0
0
0.9996868128907236
0.9996868683407691
0.9996867745610135
0.9996864822569326
0.9996859896238574
0.9996853336110147
0.9996845494838895
0.9996836674522269
0.9996827144346111
0.9996817146908847
0.9996806894506135
0.999679657107732
0.9996786335623468
0.999677632530611
0.9996766657963206
0.9996757434425269
0.9996748740614592
0.9996740649410593
0.9996733222295047
0.999672651080965
0.999672055784773
0.9996715398798434
0.9996711062559028
0.9996707572429666
0.9996704946902286
0.9996703200354193
0.9996702343655038
0.9996702384695177
0.9996703328842156
0.9996705179331627
0.9996707937598076
0.999671160355054
0.9996716175797757
0.999672165182717
0.9996728028141584
0.9996735300357351
0.9996743463267417
0.9996752510872678
0.9996762436384712
0.9996773232202988
0.999678488986938
0.9996797400002836
0.999681075221687
0.9996824935022526
0.9996839935719365
0.9996855740276916
0.9996872333209061
0.9996889697443713
0.999690781419008
0.9996926662805802
0.9996946220666193
0.9996966463037743
0.9996987362958026
0.9997008891124058
0.9997031015791193
0.9997053702684409
0.9997076914924001
0.9997100612967407
0.9997124754568925
0.9997149294758942
0.9997174185844258
0.9997199377430729
0.9997224816469722
0.9997250447329228
0.9997276211890753
0.9997302049672561
0.9997327897979915
0.9997353692082472
0.9997379365419049
0.9997404849829352
0.9997430075812429
0.9997454972810869
0.9997479469519858
0.9997503494219733
0.9997526975130347
0.9997549840785395
0.9997572020424481
0.9997593444400441
0.9997614044599209
0.9997633754869248
0.9997652511457396
0.999767025344774
0.9997686923200076
0.9997702466784321
0.9997716834407262
0.9997729980827976
0.999774186575838
0.9997752454245302
0.9997761717030892
0.9997769630888165
0.9997776178928935
0.9997781350881583
0.9997785143336726
0.9997787559959039
0.9997788611664292
0.9997788316760992
0.9997786701056812
0.9997783797930548
0.999777964837111
0.9997774300985742
0.9997767811980468
0.9997760245116529
0.999775167164733
0.9997742170241238
0.999773182689635
0.9997720734853962
0.9997708994518235
0.9997696713389791
0.9997684006021456
0.9997670994003756
0.9997657805986581
0.9997644577740674
0.9997631452259157
0.9997618579897258
0.9997606118506298
0.9997594233490085
0.9997583097669923
0.9997572891184505
0.9997563800453264
0.9997556014548927
0.9997549714877768
0.9997545076221016
0.9997542258089652
0.9997541332538198
0.999754180475289
0.9997542912040855
0
0
0.9996867536699149
0.9996868104780963
0.9996867102083138
0.9996864329169443
0.9996859972667277
0.9996854200116803
0.9996847258731365
0.9996839400006354
0.9996830863152266
0.9996821862112767
0.9996812588671762
0.9996803213005798
0.9996793884841343
0.9996784734911512
0.9996775876846367
0.9996767408965764
0.9996759415944098
0.999675197034124
0.9996745134007289
0.9996738959356524
0.9996733490515562
0.9996728764355269
0.9996724811414759
0.9996721656726779
0.9996719320551516
0.9996717819027051
0.9996717164742285
0.9996717367239228
0.999671843344951
0.9996720368070854
0.9996723173887608
0.9996726852040243
0.9996731402247367
0.9996736822984498
0.999674311162274
0.9996750264531171
0.9996758277145742
0.9996767144008127
0.9996776858777142
0.9996787414215862
0.9996798802156848
0.9996811013448432
0.9996824037884381
0.9996837864119554
0.9996852479573942
0.9996867870327444
0.9996884021007711
0.9996900914673312
0.9996918532694435
0.9996936854633285
0.9996955858126323
0.9996975518770433
0.999699581001501
0.9997016703061979
0.9997038166775732
0.9997060167604683
0.9997082669516504
0.9997105633948489
0.9997129019774943
0.99971527832929
0.9997176878227895
0.9997201255760739
0.9997225864576874
0.9997250650938974
0.9997275558783939
0.9997300529844695
0.9997325503797543
0.9997350418435004
0.9997375209864533
0.9997399812732516
0.9997424160473449
0.9997448185583176
0.9997471819915572
0.9997494995001
0.9997517642385335
0.9997539693987366
0.9997561082472847
0.9997581741642427
0.9997601606831288
0.9997620615317254
0.999763870673474
0.9997655823491014
0.9997671911181818
0.9997686919002591
0.9997700800152216
0.9997713512225511
0.999772501759139
0.9997735283753105
0.9997744283687755
0.9997751996161817
0.9997758406020408
0.9997763504447588
0.9997767289196139
0.9997769764784924
0.9997770942663199
0.999777084134094
0.9997769486485686
0.999776691098605
0.9997763154983674
0.9997758265875022
0.9997752298286032
0.9997745314022286
0.9997737381998986
0.9997728578154566
0.9997718985353159
0.9997708693280645
0.9997697798339896
0.9997686403549898
0.9997674618453417
0.9997662559035658
0.9997650347654858
0.9997638112979889
0.9997625989921397
0.9997614119525972
0.9997602648803113
0.999759173041304
0.999758152205079
0.9997572184985087
0.9997563881775715
0.9997556772929891
0.999755101244653
0.9997546727989599
0.9997543991354069
0.9997542770370045
0.9997542903199691
0.9997544006845027
0
0
0.999686844951891
0.9996869098321381
0.9996868098768772
0.9996865468556307
0.9996861464752693
0.9996856210245144
0.9996849915822957
0.99968427906765
0.9996835037523427
0.9996826843409335
0.9996818380850387
0.9996809805234879
0.9996801255066675
0.999679285285785
0.9996784706375395
0.9996776909845854
0.9996769545207552
0.999676268333889
0.9996756385223375
0.9996750703031594
0.9996745681117643
0.999674135693127
0.9996737761845983
0.9996734921907676
0.9996732858506534
0.9996731588978044
0.9996731127136144
0.9996731483744159
0.999673266692646
0.999673468252601
0.9996737534410491
0.9996741224731707
0.9996745754140736
0.9996751121963026
0.9996757326335788
0.9996764364311458
0.9996772231929415
0.9996780924259473
0.9996790435419165
0.9996800758568101
0.9996811885881319
0.9996823808504655
0.9996836516494072
0.9996849998741701
0.9996864242890496
0.9996879235240126
0.9996894960645981
0.9996911402413667
0.9996928542190968
0.9996946359859415
0.9996964833427487
0.999698393892736
0.9997003650317283
0.999702393939132
0.9997044775698468
0.999706612647276
0.9997087956576259
0.9997110228456423
0.9997132902119595
0.9997155935121839
0.9997179282578836
0.9997202897195687
0.9997226729318148
0.9997250727005894
0.9997274836128971
0.9997299000487716
0.9997323161956967
0.9997347260654367
0.9997371235133252
0.99973950225994
0.9997418559151666
0.9997441780045322
0.9997464619977563
0.9997487013393502
0.9997508894811606
0.9997530199166298
0.999755086216627
0.9997570820665634
0.9997590013046039
0.9997608379606444
0.9997625862958293
0.9997642408422376
0.9997657964424937
0.9997672482889092
0.9997685919618907
0.9997698234672261
0.999770939271988
0.9997719363386743
0.999772812157355
0.9997735647754833
0.9997741928251804
0.9997746955477081
0.9997750728150063
0.9997753251480863
0.9997754537322359
0.9997754604289228
0.9997753477844515
0.999775119035362
0.999774778110728
0.9997743296314606
0.9997737789068818
0.9997731319287662
0.99977239536322
0.9997715765406743
0.9997706834444123
0.9997697246979429
0.9997687095516103
0.9997676478686612
0.9997665501109739
0.9997654273242745
0.9997642911224596
0.9997631536700285
0.9997620276610742
0.9997609262905341
0.9997598632115877
0.9997588524706792
0.9997579084206631
0.9997570455619185
0.9997562782632432
0.9997556202452981
0.9997550843223767
0.9997546811495647
0.999754417232561
0.9997542893205645
0.9997543030798555
0.9997544474704027
0
0
0.9996871372611941
0.999687187301836
0.9996870725173762
0.9996868088931673
0.9996864218824258
0.9996859262591326
0.9996853400760937
0.999684680222468
0.9996839639997451
0.9996832078597173
0.9996824270940868
0.9996816356428292
0.9996808461318866
0.9996800698785989
0.9996793169430459
0.9996785962065766
0.9996779154648117
0.9996772815212969
0.9996767002798517
0.9996761768338985
0.9996757155510307
0.9996753201519736
0.9996749937833724
0.9996747390845301
0.9996745582479571
0.999674453074082
0.9996744250201551
0.9996744752437917
0.9996746046412587
0.999674813880959
0.9996751034322504
0.9996754735900335
0.9996759244952594
0.9996764561517593
0.9996770684395558
0.9996777611250318
0.9996785338681063
0.9996793862267795
0.9996803176591894
0.9996813275235183
0.9996824150758951
0.9996835794666014
0.9996848197347388
0.9996861348016379
0.9996875234631699
0.9996889843812219
0.9996905160744987
0.9996921169088995
0.9996937850876297
0.9996955186412757
0.9996973154180153
0.9996991730741718
0.9997010890652777
0.9997030606378479
0.9997050848220275
0.9997071584252851
0.999709278027333
0.9997114399764018
0.999713640387058
0.9997158751396661
0.9997181398816688
0.9997204300307597
0.9997227407801037
0.9997250671056513
0.9997274037756699
0.9997297453625071
0.9997320862566785
0.9997344206832449
0.9997367427205434
0.9997390463211845
0.9997413253353374
0.9997435735361682
0.9997457846473997
0.9997479523728131
0.9997500704276053
0.999752132571371
0.9997541326425775
0.9997560645942494
0.9997579225306882
0.9997597007449016
0.9997613937565286
0.9997629963499041
0.9997645036120215
0.9997659109700185
0.9997672142279311
0.9997684096023353
0.9997694937566304
0.9997704638335939
0.9997713174859862
0.9997720529048681
0.9997726688454541
0.9997731646502128
0.9997735402691023
0.999773796276723
0.9997739338863516
0.9997739549607175
0.9997738620195901
0.9997736582441193
0.9997733474780942
0.9997729342261615
0.9997724236492552
0.9997718215573658
0.9997711343999678
0.9997703692542801
0.9997695338117145
0.9997686363626606
0.9997676857798914
0.9997666915005874
0.9997656635070079
0.9997646123054246
0.999763548902674
0.9997624847787175
0.9997614318532749
0.9997604024437502
0.9997594092104573
0.9997584650736518
0.9997575830924605
0.9997567762977602
0.9997560575259813
0.9997554390003717
0.999754931795533
0.9997545448235841
0.9997542861904846
0.9997541596275865
0.9997541812656618
0.9997543565843461
0
0
0.9996876321745564
0.9996876249776215
0.9996874737086237
0.9996871944994403
0.9996868058670493
0.9996863231045398
0.9996857618992683
0.9996851370205861
0.9996844633876888
0.9996837551973736
0.9996830258479581
0.9996822877699936
0.9996815523524886
0.9996808299044677
0.9996801296830425
0.9996794599403255
0.9996788279828408
0.9996782402388502
0.999677702330108
0.9996772191439585
0.9996767949033177
0.9996764332336141
0.9996761372256613
0.9996759094942272
0.9996757522317825
0.9996756672576054
0.9996756560620268
0.999675719846163
0.9996758595570465
0.9996760759185738
0.9996763694582507
0.9996767405301615
0.9996771893342011
0.9996777159319686
0.9996783202593924
0.9996790021364718
0.9996797612742154
0.9996805972791418
0.9996815096554301
0.9996824978050693
0.9996835610260995
0.9996846985092721
0.9996859093332302
0.9996871924585133
0.9996885467205031
0.9996899708215815
0.999691463322634
0.9996930226341514
0.9996946470070643
0.9996963345235452
0.999698083087927
0.9996998904179442
0.9997017540364546
0.9997036712638327
0.9997056392111912
0.9997076547745981
0.9997097146304578
0.9997118152321908
0.9997139528083739
0.999716123362468
0.9997183226742653
0.9997205463031636
0.9997227895933922
0.9997250476812479
0.9997273155044563
0.9997295878136749
0.9997318591862259
0.9997341240420324
0.9997363766618096
0.9997386112074389
0.999740821744541
0.9997430022671148
0.9997451467242241
0.9997472490485407
0.9997493031866805
0.999751303131093
0.9997532429533876
0.9997551168388124
0.9997569191217278
0.999758644321745
0.9997602871803366
0.9997618426975539
0.9997633061686396
0.999764673220144
0.99976593984532
0.9997671024384025
0.9997681578275563
0.9997691033061044
0.9997699366618401
0.9997706562040735
0.9997712607882561
0.999771749837872
0.9997721233635132
0.9997723819788822
0.999772526913718
0.9997725600234624
0.9997724837957476
0.9997723013536134
0.9997720164556098
0.9997716334927813
0.9997711574827683
0.999770594061086
0.9997699494698702
0.999769230544175
0.9997684446961221
0.9997675998969354
0.99976670465707
0.9997657680042942
0.999764799459635
0.9997638090106089
0.9997628070811386
0.9997618044967773
0.9997608124430778
0.9997598424131243
0.9997589061422878
0.9997580155254979
0.9997571825090538
0.9997564189195173
0.9997557362845237
0.9997551455936257
0.9997546571541491
0.9997542798322975
0.9997540228656587
0.9997538943045725
0.999753909292523
0.9997540792993842
0
0
0.9996882940421411
0.9996882072846502
0.9996880021212234
0.9996876897940895
0.9996872840983604
0.9996867987863562
0.9996862471973421
0.9996856422634076
0.999684996707818
0.9996843227768509
0.9996836321819923
0.9996829358915685
0.9996822440457963
0.9996815659223217
0.999680909934045
0.9996802836443142
0.99967969380261
0.9996791463922218
0.999678646683642
0.9996781992906658
0.999677808226997
0.9996774769620198
0.9996772084741931
0.9996770053016405
0.9996768695891671
0.9996768031317369
0.9996768074139769
0.9996768836459589
0.9996770327950183
0.999677255613973
0.999677552665604
0.9996779243438002
0.9996783708913022
0.9996788924144472
0.9996794888948947
0.9996801601987297
0.9996809060829458
0.9996817261996941
0.9996826200983159
0.9996835872255302
0.9996846269238087
0.9996857384282848
0.9996869208622505
0.9996881732315599
0.9996894944180098
0.9996908831719951
0.9996923381045182
0.9996938576788339
0.9996954402018207
0.9996970838153341
0.999698786487649
0.9997005460052255
0.9997023599649142
0.9997042257668097
0.9997061406078857
0.9997081014765914
0.9997101051485443
0.999712148183479
0.9997142269235921
0.9997163374934067
0.9997184758012935
0.9997206375427473
0.999722818205541
0.9997250130768197
0.9997272172522431
0.999729425647198
0.999731633010163
0.9997338339382066
0.9997360228946706
0.9997381942289639
0.9997403421984913
0.9997424609925866
0.9997445447584316
0.9997465876287809
0.999748583751426
0.9997505273201676
0.9997524126071876
0.9997542339965343
0.9997559860185778
0.9997576633850976
0.9997592610248343
0.9997607741191243
0.999762198137426
0.9997635288723411
0.9997647624739203
0.9997658954828501
0.9997669248623196
0.9997678480281678
0.999768662877138
0.9997693678128606
0.9997699617694367
0.9997704442322847
0.9997708152561805
0.9997710754802177
0.9997712261396803
0.9997712690746349
0.9997712067353104
0.9997710421841478
0.9997707790946713
0.999770421747132
0.9997699750211508
0.99976944438536
0.9997688358843155
0.9997681561226939
0.9997674122470368
0.9997666119249989
0.999765763322256
0.9997648750768602
0.9997639562709536
0.9997630163992125
0.9997620653333394
0.9997611132813471
0.9997601707406114
0.9997592484418506
0.999758357280053
0.9997575082279088
0.9997567122407478
0.9997559801366737
0.9997553224525281
0.9997547492367749
0.999754270133391
0.9997538941850933
0.9997536309307236
0.9997534901246664
0.9997534842210877
0.9997536235301837
0
0
0.9996890894074223
0.9996889107225673
0.9996886376164589
0.9996882776641708
0.9996878417698002
0.9996873408045488
0.9996867858084019
0.9996861878520722
0.9996855577804437
0.9996849061413179
0.9996842430625726
0.9996835781152629
0.9996829202417568
0.9996822777001564
0.9996816580386223
0.999681068096333
0.9996805140225783
0.9996800013066658
0.9996795348154526
0.9996791188360892
0.9996787571209211
0.9996784529330383
0.9996782090908366
0.9996780280110928
0.9996779117495338
0.9996778620388377
0.9996778803234436
0.9996779677913753
0.9996781254026854
0.9996783539148507
0.9996786539048652
0.9996790257884203
0.9996794698360031
0.9996799861863316
0.999680574857006
0.9996812357527992
0.9996819686715028
0.9996827733077434
0.9996836492547139
0.9996845960042153
0.9996856129449807
0.9996866993596544
0.9996878544204174
0.9996890771836126
0.99969036658338
0.9996917214246303
0.999693140375386
0.9996946219587954
0.9996961645448692
0.9996977663422146
0.9996994253898407
0.9997011395492829
0.9997029064971363
0.9997047237182173
0.9997065884994651
0.9997084979247713
0.9997104488708556
0.9997124380043573
0.999714461780261
0.9997165164417972
0.9997185980219325
0.9997207023465695
0.9997228250395505
0.9997249615295556
0.9997271070589779
0.9997292566948214
0.9997314053416846
0.9997335477568311
0.9997356785673848
0.9997377922895964
0.9997398833501866
0.9997419461096607
0.9997439748875665
0.9997459639895212
0.9997479077359511
0.999749800492308
0.9997516367006677
0.9997534109124172
0.9997551178219023
0.9997567523006938
0.999758309432307
0.9997597845470021
0.9997611732564704
0.9997624714880141
0.999763675518009
0.9997647820042482
0.9997657880169646
0.9997666910681324
0.9997674891388705
0.999768180704566
0.9997687647575902
0.9997692408272594
0.9997696089969653
0.9997698699181949
0.9997700248214257
0.9997700755236809
0.99977002443282
0.9997698745484
0.9997696294592782
0.9997692933378521
0.9997688709311635
0.9997683675488219
0.9997677890480033
0.9997671418154903
0.9997664327469958
0.9997656692236888
0.9997648590860575
0.9997640106048651
0.999763132449123
0.999762233650556
0.9997613235641306
0.9997604118234206
0.9997595082897598
0.9997586229940938
0.9997577660711436
0.9997569476807691
0.9997561779177667
0.999755466714521
0.9997548237656909
0.9997542584179799
0.9997537797393952
0.999753396573775
0.9997531179366969
0.9997529530586212
0.9997529128655334
0.999753005227069
0
0
0.9996899897926715
0.9996897114020217
0.9996893602610915
0.9996889420186307
0.9996884647803548
0.9996879368504502
0.999687367260643
0.9996867651874457
0.9996861397581452
0.9996854999465589
0.9996848544267902
0.9996842114768405
0.9996835788953689
0.999682963940215
0.9996823732971385
0.9996818130691583
0.9996812887805723
0.999680805393587
0.999680367333874
0.9996799785220665
0.9996796424083574
0.9996793620090249
0.9996791399430723
0.9996789784684157
0.9996788795164099
0.9996788447246527
0.9996788754672714
0.9996789728828838
0.999679137899689
0.9996793712580277
0.9996796735300252
0.9996800451367287
0.9996804863624587
0.9996809973668127
0.9996815781941097
0.9996822287807289
0.9996829489601697
0.9996837384662828
0.9996845969345406
0.999685523901776
0.9996865188042903
0.9996875809747388
0.9996887096377225
0.9996899039044695
0.9996911627665609
0.9996924850890581
0.9996938696030138
0.9996953148976943
0.9996968194125203
0.999698381429029
0.9996999990628831
0.9997016702562065
0.9997033927702941
0.9997051641789456
0.9997069818624854
0.9997088430027042
0.9997107445787824
0.9997126833644125
0.9997146559261908
0.9997166586234555
0.9997186876096578
0.9997207388353987
0.9997228080532221
0.9997248908242585
0.9997269825267958
0.9997290783668336
0.9997311733906804
0.9997332624996029
0.9997353404665589
0.999737401954975
0.9997394415395713
0.9997414537291346
0.9997434329912099
0.9997453737785515
0.9997472705572672
0.9997491178364333
0.9997509101990824
0.9997526423342825
0.9997543090701649
0.9997559054075781
0.9997574265541962
0.9997588679587057
0.9997602253448846
0.99976149474517
0.999762672533514
0.9997637554571104
0.9997647406667989
0.9997656257457334
0.9997664087361362
0.9997670881637523
0.9997676630598664
0.9997681329805259
0.9997684980228958
0.9997687588384383
0.9997689166429142
0.9997689732229588
0.9997689309393089
0.999768792726495
0.9997685620891611
0.9997682430948758
0.9997678403636687
0.9997673590542004
0.9997668048468288
0.9997661839234993
0.9997655029447051
0.9997647690234024
0.9997639896960521
0.9997631728905488
0.9997623268910348
0.9997614602991001
0.9997605819911801
0.9997597010714835
0.9997588268198281
0.9997579686330126
0.9997571359604291
0.999756338234625
0.9997555847976144
0.9997548848200335
0.9997542472459096
0.9997536807534022
0.9997531937819849
0.9997527946111561
0.9997524915392535
0.9997522925350679
0.999752206843189
0.9997522408846696
0
0
0.9996909697863579
0.9996905865274152
0.999690150615058
0.9996896661563315
0.9996891386775981
0.9996885745806386
0.999687981017998
0.9996873654022035
0.9996867352968084
0.9996860982245583
0.9996854615301585
0.9996848322849441
0.9996842172017996
0.9996836225773502
0.9996830542542718
0.9996825176008447
0.999682017505802
0.9996815583857065
0.9996811442006442
0.9996807784763545
0.9996804643302991
0.9996802045004943
0.9996800013751646
0.9996798570227268
0.9996797732208095
0.999679751484238
0.9996797930910614
0.9996798991068176
0.9996800704063796
0.999680307693721
0.9996806115191185
0.9996809822942165
0.9996814203045739
0.9996819257201585
0.9996824986034955
0.9996831389159422
0.9996838465218484
0.9996846211910737
0.9996854625996675
0.9996863703291637
0.9996873438643353
0.9996883825898414
0.999689485785637
0.9996906526215638
0.9996918821510168
0.99969317330408
0.999694524880053
0.9996959355397383
0.9996974037974369
0.9996989280129919
0.9997005063838589
0.9997021369375151
0.999703817524204
0.9997055458103082
0.9997073192723649
0.9997091351919855
0.9997109906517211
0.999712882532095
0.9997148075098642
0.999716762057701
0.9997187424453533
0.9997207447424541
0.9997227648230342
0.9997247983718643
0.9997268408926815
0.9997288877183829
0.9997309340232203
0.9997329748370408
0.9997350050615774
0.9997370194887819
0.9997390128211827
0.9997409796941941
0.9997429147003297
0.9997448124151864
0.9997466674251163
0.9997484743563814
0.999750227905684
0.9997519228718041
0.9997535541881917
0.9997551169561997
0.9997566064787791
0.999758018294264
0.9997593482100539
0.9997605923357861
0.9997617471158017
0.9997628093604686
0.9997637762761761
0.9997646454935701
0.9997654150938537
0.9997660836327479
0.999766650161975
0.9997671142478932
0.9997674759872024
0.9997677360193978
0.9997678955359642
0.9997679562860428
0.9997679205786477
0.9997677912812224
0.9997675718146918
0.9997672661448629
0.9997668787703919
0.9997664147072178
0.9997658794697184
0.9997652790485068
0.9997646198851254
0.9997639088435195
0.9997631531785006
0.9997623605009872
0.9997615387401424
0.9997606961020475
0.9997598410248282
0.9997589821297699
0.9997581281685789
0.999757287966343
0.999756470360152
0.9997556841342883
0.9997549379572223
0.9997542403201503
0.9997535994884069
0.9997530234768172
0.9997525200486048
0.9997520967016168
0.999751760857502
0.9997515193774846
0.9997513795353308
0.9997513466113205
0
0
0.999692006340978
0.9996915155649816
0.9996909905474629
0.9996904339838367
0.9996898494662888
0.9996892418251372
0.9996886165155862
0.9996879794307232
0.9996873367101546
0.999686694545762
0.9996860590603152
0.9996854362035731
0.9996848316702219
0.9996842508417999
0.999683698744661
0.9996831800251141
0.9996826989382133
0.9996822593477211
0.9996818647342313
0.9996815182101106
0.9996812225386122
0.9996809801561903
0.999680793196128
0.9996806635131015
0.9996805927072714
0.9996805821478902
0.9996806329953875
0.9996807462221804
0.9996809226314259
0.9996811628741029
0.9996814674638221
0.9996818367898351
0.9996822711277596
0.9996827706485325
0.9996833354251928
0.999683965438027
0.9996846605777311
0.9996854206471245
0.999686245361123
0.9996871343454823
0.9996880871340699
0.9996891031651556
0.9996901817765057
0.999691322199757
0.9996925235538857
0.9996937848382191
0.9996951049248437
0.9996964825508194
0.9996979163100963
0.9996994046455079
0.9997009458407675
0.9997025380128206
0.9997041791045003
0.9997058668778128
0.9997075989078265
0.9997093725774614
0.999711185073178
0.999713033381827
0.9997149142886758
0.9997168243768487
0.9997187600282006
0.9997207174258268
0.999722692558235
0.9997246812253434
0.9997266790463238
0.9997286814694128
0.9997306837836987
0.9997326811329564
0.9997346685315174
0.9997366408821953
0.9997385929962265
0.9997405196151824
0.9997424154347934
0.9997442751305576
0.9997460933850568
0.9997478649167806
0.9997495845103407
0.9997512470478206
0.9997528475411006
0.9997543811648462
0.9997558432899755
0.9997572295172351
0.9997585357106833
0.9997597580306732
0.9997608929661208
0.9997619373656335
0.9997628884672868
0.9997637439266223
0.9997645018426728
0.9997651607816043
0.9997657197978278
0.9997661784521896
0.9997665368271624
0.9997667955386853
0.999766955744654
0.9997670191497603
0.9997669880067677
0.9997668651139837
0.9997666538090955
0.9997663579591924
0.9997659819472088
0.9997655306546606
0.9997650094409605
0.9997644241192024
0.9997637809287165
0.9997630865042789
0.9997623478422485
0.9997615722634579
0.9997607673730727
0.999759941017186
0.9997591012363408
0.9997582562156471
0.9997574142317415
0.9997565835968063
0.9997557726005813
0.9997549894505279
0.9997542422135004
0.9997535387626543
0.9997528867315795
0.9997522934791965
0.9997517660809788
0.999751311250413
0.9997509354305243
0.9997506445095606
0.9997504440680396
0.9997503382416786
0
0
0.9996930790507798
0.9996924798487692
0.9996918630638308
0.9996912302647407
0.9996905836363308
0.9996899266262732
0.9996892632710715
0.9996885981478479
0.9996879361114955
0.9996872821545281
0.9996866412816205
0.9996860184059433
0.9996854182711322
0.9996848453926492
0.9996843040148229
0.9996837980834976
0.9996833312303789
0.9996829067679627
0.9996825276922944
0.9996821966923264
0.9996819161634057
0.9996816882242587
0.9996815147355673
0.9996813973198688
0.9996813373813184
0.9996813361253863
0.9996813945773733
0.9996815136000343
0.9996816939094441
0.9996819360895334
0.9996822406046023
0.9996826078103268
0.9996830379626824
0.9996835312253478
0.9996840876750975
0.9996847073057644
0.9996853900303484
0.999686135681843
0.9996869440124239
0.9996878146915417
0.999688747302617
0.9996897413388568
0.9996907961979333
0.9996919111760151
0.9996930854609295
0.9996943181249246
0.9996956081168371
0.9996969542541145
0.999698355214526
0.9996998095279845
0.9997013155683487
0.9997028715455984
0.9997044754982801
0.9997061252865945
0.999707818586046
0.9997095528819964
0.9997113254650718
0.9997131334277368
0.999714973661995
0.9997168428585083
0.9997187375071043
0.9997206538989248
0.9997225881302022
0.9997245361078662
0.9997264935569723
0.9997284560301071
0.9997304189187592
0.9997323774667525
0.9997343267857132
0.9997362618726195
0.9997381776293721
0.9997400688843725
0.9997419304160252
0.999743756978071
0.9997455433266439
0.9997472842488844
0.9997489745929666
0.9997506092993061
0.9997521834327668
0.9997536922155713
0.9997551310607122
0.9997564956054965
0.999757781745015
0.9997589856651203
0.9997601038746949
0.9997611332367655
0.9997620709982549
0.9997629148179177
0.9997636627922762
0.9997643134791029
0.9997648659183247
0.9997653196499131
0.9997656747286969
0.9997659317357126
0.9997660917860961
0.9997661565331935
0.99976612816898
0.9997660094205226
0.9997658035426655
0.9997655143067411
0.999765145985551
0.9997647033344823
0.9997641915690643
0.9997636163388547
0.999762983697998
0.9997623000723525
0.9997615722235271
0.9997608072097113
0.9997600123436166
0.9997591951473748
0.9997583633047477
0.9997575246105875
0.9997566869179573
0.999755858083022
0.9997550459088991
0.9997542580892953
0.9997535021532881
0.99975278541359
0.9997521149202502
0.9997514974115556
0.9997509392868938
0.9997504465353874
0.9997500246910245
0.9997496787087199
0.9997494128814179
0.9997492303357527
0
0
0.9996941698906585
0.9996934624745004
0.9996927525196744
0.9996920407652197
0.9996913283023252
0.9996906174251468
0.9996899110031601
0.9996892124561025
0.9996885255066799
0.9996878540740907
0.9996872021438434
0.9996865736756697
0.9996859725286453
0.99968540240391
0.9996848668023094
0.9996843689957728
0.9996839120092459
0.9996834986124877
0.9996831313189469
0.9996828123909086
0.999682543848656
0.9996823274831984
0.9996821648706711
0.9996820573882911
0.9996820062303898
0.9996820124246839
0.9996820768475952
0.9996822002389929
0.9996823832153957
0.9996826262821354
0.9996829298436954
0.9996832942127981
0.9996837196175754
0.9996842062074428
0.9996847540570988
0.9996853631692846
0.9996860334757943
0.9996867648373717
0.9996875570420374
0.9996884098024663
0.9996893227520146
0.9996902954399854
0.9996913273257815
0.999692417772508
0.9996935660397144
0.999694771275807
0.9996960325098657
0.9996973486433631
0.9996987184415601
0.9997001405250451
0.9997016133612296
0.9997031352562383
0.9997047043470365
0.9997063185942141
0.9997079757752892
0.9997096734789309
0.9997114090999898
0.9997131798357024
0.9997149826829865
0.9997168144371583
0.9997186716920065
0.9997205508415171
0.9997224480832002
0.9997243594232625
0.9997262806835876
0.9997282075107159
0.9997301353867836
0.999732059642561
0.9997339754725286
0.9997358779520784
0.9997377620567548
0.9997396226835515
0.9997414546741615
0.9997432528401144
0.9997450119896675
0.9997467269563158
0.999748392628753
0.9997500039820624
0.9997515561099524
0.9997530442577376
0.9997544638558502
0.9997558105535259
0.999757080252427
0.9997582691397926
0.9997593737208837
0.9997603908502672
0.999761317761717
0.9997621520962702
0.9997628919282324
0.9997635357886822
0.9997640826863105
0.9997645321251719
0.9997648841192507
0.9997651392034534
0.9997652984410217
0.9997653634270233
0.9997653362880091
0.9997652196775657
0.9997650167679328
0.9997647312374877
0.9997643672543527
0.9997639294559848
0.9997634229250772
0.9997628531616738
0.9997622260518775
0.9997615478330729
0.9997608250560772
0.9997600645441395
0.9997592733492244
0.9997584587055168
0.9997576279805928
0.9997567886242844
0.999755948115879
0.9997551139098078
0.9997542933806722
0.9997534937683759
0.9997527221243037
0.9997519852585345
0.9997512896907857
0.999750641596818
0.9997500467545767
0.9997495104887499
0.9997490375673819
0.9997486321183788
0.9997482974363798
0.9997480358729811
0
0
0.9996952628402574
0.9996944481493053
0.9996936445618545
0.9996928521904543
0.9996920712587154
0.9996913031319377