# vtk DataFile Version 2.0
2D-ADE data file 
ASCII
DATASET RECTILINEAR_GRID
DIMENSIONS 128 128 1 
X_COORDINATES 128 int
0 1 2 3 4 5 6 7 8 9 10 11 12 13 14 15 16 17 18 19 20 21 22 23 24 25 26 27 28 29 30 31 32 33 34 35 36 37 38 39 40 41 42 43 44 45 46 47 48 49 50 51 52 53 54 55 56 57 58 59 60 61 62 63 64 65 66 67 68 69 70 71 72 73 74 75 76 77 78 79 80 81 82 83 84 85 86 87 88 89 90 91 92 93 94 95 96 97 98 99 100 101 102 103 104 105 106 107 108 109 110 111 112 113 114 115 116 117 118 119 120 121 122 123 124 125 126 127 
Y_COORDINATES 128 int
0 1 2 3 4 5 6 7 8 9 10 11 12 13 14 15 16 17 18 19 20 21 22 23 24 25 26 27 28 29 30 31 32 33 34 35 36 37 38 39 40 41 42 43 44 45 46 47 48 49 50 51 52 53 54 55 56 57 58 59 60 61 62 63 64 65 66 67 68 69 70 71 72 73 74 75 76 77 78 79 80 81 82 83 84 85 86 87 88 89 90 91 92 93 94 95 96 97 98 99 100 101 102 103 104 105 106 107 108 109 110 111 112 113 114 115 116 117 118 119 120 121 122 123 124 125 126 127 
Z_COORDINATES 1 int
0
POINT_DATA 16384
SCALARS density double
LOOKUP_TABLE default
0
0
0
0
0
0
0
0
0
0
0
0
0
0
0
0
0
0
0
0
0
0
0
0
0
0
0
0
0
0
0
0
0
0
0
0
0
0
0
0
0
0
0
0
0
0
0
0
0
0
0
0
0
0
0
0
0
0
0
0
0
0
0
0
0
0
0
0
0
0
0
0
0
0
0
0
0
0
0
0
0
0
0
0
0
0
0
0
0
0
0
0
0
0
0
0
0
0
0
0
0
0
0
0
0
0
0
0
0
0
0
0
0
0
0
0
0
0
0
0
0
0
0
0
0
0
0
0
0
0.9996867285436222
0.9996867857965336
0.9996866925820526
0.9996863989114779
0.999685903370517
0.9996852431384884
0.9996844535862018
0.9996835650513448
0.9996826045922441
0.9996815965985749
0.9996805624181185
0.9996795205551281
0.9996784870125341
0.9996774756016813
0.999676498194248
0.9996755649544198
0.9996746845493671
0.9996738643363331
0.9996731105277299
0.9996724283374403
0.9996718221105072
0.9996712954380256
0.9996708512587935
0.9996704919491622
0.999670219402247
0.9996700350975545
0.9996699401618998
0.9996699354224156
0.9996700214523256
0.9996701986101226
0.9996704670726839
0.9996708268628521
0.9996712778719271
0.9996718198775091
0.9996724525570899
0.9996731754977624
0.9996739882024079
0.9996748900926932
0.9996758805091923
0.9996769587089507
0.9996781238607679
0.9996793750384984
0.9996807112126312
0.9996821312404237
0.9996836338548343
0.9996852176525215
0.999686881081139
0.9996886224261728
0.9996904397975581
0.9996923311162952
0.999694294101296
0.99969632625668
0.9996984248597303
0.9997005869497188
0.9997028093178124
0.999705088498244
0.9997074207609511
0.9997098021058533
0.9997122282589529
0.9997146946704134
0.9997171965147728
0.9997197286934273
0.9997222858395167
0.9997248623253105
0.9997274522721964
0.999730049563332
0.9997326478590227
0.9997352406148418
0.9997378211025035
0.9997403824334631
0.9997429175851976
0.9997454194300844
0.999747880766776
0.9997502943539308
0.9997526529461376
0.9997549493318338
0.9997571763729999
0.9997593270463687
0.9997613944858907
0.999763372026127
0.9997652532462799
0.9997670320144945
0.999768702532098
0.9997702593773993
0.9997716975486921
0.9997730125060836
0.9997742002117948
0.9997752571685682
0.9997761804558656
0.9997769677635235
0.9997776174226005
0.9997781284331535
0.999778500488752
0.9997787339975559
0.9997788300998602
0.9997787906820499
0.9997786183869865
0.9997783166208978
0.9997778895569313
0.9997773421355853
0.9997766800623331
0.999775909802806
0.9997750385760057
0.9997740743460729
0.9997730258132322
0.9997719024045877
0.9997707142655213
0.9997694722524628
0.9997681879278502
0.9997668735580411
0.9997655421147866
0.9997642072806309
0.9997628834582046
0.9997615857831836
0.9997603301364338
0.9997591331480942
0.999758012181951
0.9997569853224839
0.9997560712670981
0.9997552889593634
0.9997546565483972
0.9997541914778336
0.9997539095896661
0.9997538179248584
0.9997538666375205
0.9997539787549545
0
0
0.9996866701035251
0.9996867276697818
0.9996866272300239
0.9996863484825383
0.999685910096471
0.9996853288596952
0.9996846296130656
0.9996838376240702
0.9996829769266544
0.9996820690251694
0.9996811332052568
0.9996801865862549
0.9996792442363338
0.9996783193182958
0.9996774232787995
0.9996765660278463
0.9996757561055786
0.9996750008357705
0.9996743064667183
0.9996736782990618
0.9996731208010032
0.9996726377118845
0.9996722321349346
0.9996719066201198
0.9996716632377975
0.9996715036439883
0.9996714291378573
0.9996714407120902
0.9996715390966513
0.9996717247965028
0.9996719981236912
0.9996723592243033
0.9996728081006387
0.9996733446290371
0.9996739685736687
0.9996746795966771
0.9996754772649552
0.9996763610539027
0.9996773303484295
0.999678384441519
0.9996795225305996
0.9996807437120178
0.9996820469738501
0.9996834311873193
0.9996848950970479
0.9996864373104039
0.9996880562861534
0.9996897503226635
0.9996915175458716
0.9996933558972414
0.9996952631219231
0.9996972367573205
0.9996992741222778
0.9997013723070798
0.9997035281644671
0.999705738301842
0.9997079990748617
0.9997103065825782
0.9997126566643042
0.9997150448983394
0.9997174666027321
0.9997199168381676
0.9997223904131444
0.9997248818914964
0.99972738560239
0.9997298956528192
0.999732405942685
0.9997349101824446
0.9997374019133717
0.9997398745303611
0.9997423213072705
0.9997447354246828
0.9997471100000256
0.9997494381198722
0.999751712874311
0.9997539273931492
0.9997560748837842
0.9997581486704548
0.999760142234652
0.9997620492563672
0.9997638636559049
0.9997655796359037
0.9997671917232691
0.9997686948106352
0.9997700841970483
0.9997713556274824
0.9997725053308886
0.9997735300564016
0.999774427107435
0.9997751943733252
0.9997758303583023
0.9997763342075118
0.999776705729938
0.9997769454180283
0.999777054463968
0.9997770347725047
0.9997768889703752
0.9997766204123609
0.9997762331841377
0.9997757321020752
0.9997751227102812
0.9997744112751722
0.9997736047779882
0.9997727109056462
0.9997717380404589
0.999770695249182
0.9997695922719645
0.9997684395116581
0.9997672480239486
0.9997660295085531
0.9997647963015494
0.9997635613683286
0.9997623382957913
0.9997611412806798
0.9997599851109479
0.9997588851328653
0.9997578571872806
0.9997569174607642
0.9997560822535719
0.9997553676398039
0.9997547890139671
0.9997543590996052
0.9997540849764865
0.9997539632503029
0.9997539773818096
0.9997540886714836
0
0
0.9996867622225606
0.9996868274415082
0.9996867269442321
0.9996864623994015
0.9996860593236911
0.9996855300283944
0.9996848957064327
0.9996841773665188
0.9996833953727948
0.9996825685274966
0.9996817141791512
0.999680847959034
0.9996799838056621
0.9996791340539573
0.9996783095596956
0.9996775198199462
0.9996767730984855
0.9996760765488744
0.9996754363312504
0.9996748577208315
0.9996743452078745
0.9996739025891888
0.9996735330512309
0.9996732392452177
0.9996730233545447
0.9996728871550742
0.9996728320686072
0.9996728592100979
0.9996729694289069
0.9996731633446119
0.9996734413776434
0.9996738037752233
0.9996742506328505
0.999674781911756
0.9996753974525675
0.9996760969855638
0.9996768801377396
0.9996777464370318
0.9996786953139201
0.9996797261007238
0.999680838028794
0.9996820302239097
0.9996833017000666
0.999684651351938
0.9996860779462132
0.9996875801120537
0.9996891563308834
0.9996908049257298
0.9996925240503332
0.9996943116782276
0.9996961655920052
0.9996980833729554
0.9997000623912822
0.9997020997970864
0.9997041925123034
0.9997063372237661
0.9997085303775815
0.9997107681749683
0.9997130465697341
0.9997153612675161
0.9997177077269475
0.9997200811628493
0.999722476551588
0.9997248886386579
0.9997273119486165
0.9997297407973817
0.9997321693069892
0.9997345914227747
0.9997370009330374
0.9997393914911097
0.9997417566398275
0.9997440898382854
0.9997463844908252
0.9997486339780708
0.9997508316899216
0.9997529710602593
0.9997550456032233
0.9997570489507672
0.9997589748912991
0.9997608174090763
0.9997625707241206
0.9997642293322836
0.9997657880452092
0.9997672420297984
0.9997685868469083
0.9997698184888951
0.9997709334157295
0.9997719285893143
0.9997728015057606
0.9997735502252829
0.9997741733995175
0.9997746702959847
0.9997750408195633
0.9997752855307711
0.9997754056608122
0.999775403123272
0.9997752805225185
0.999775041158805
0.9997746890302284
0.9997742288316553
0.9997736659508812
0.9997730064622249
0.9997722571179297
0.9997714253376527
0.9997705191964616
0.9997695474116512
0.9997685193287726
0.9997674449070906
0.9997663347046671
0.9997651998628931
0.9997640520900664
0.9997629036429969
0.9997617673050628
0.9997606563563706
0.9997595845298562
0.9997585659446855
0.9997576150173842
0.9997567463004968
0.9997559742003989
0.999755312455852
0.999754773872979
0.9997543690687626
0.9997541044751915
0.9997539767008568
0.9997539911465039
0.9997541365930417
0
0
0.9996870555243234
0.9996871060354028
0.9996869906563965
0.9996867253410455
0.9996863355800293
0.9996858361931
0.9996852452805352
0.9996845798026649
0.9996838571496383
0.9996830938603645
0.9996823053116566
0.9996815055272334
0.9996807072144266
0.9996799217684914
0.9996791593236983
0.9996784288318586
0.999677738155372
0.9996770941609874
0.999676502812333
0.9996759692594638
0.9996754979236606
0.9996750925766211
0.9996747564134675
0.9996744921196844
0.9996743019318493
0.9996741876924934
0.9996741508991325
0.9996741927479035
0.9996743141719191
0.9996745158747913
0.9996747983594618
0.9996751619527802
0.9996756068259743
0.9996761330114242
0.9996767404158978
0.99967742883063
0.9996781979383939
0.9996790473179288
0.9996799764458749
0.9996809846965479
0.9996820713397063
0.9996832355366269
0.9996844763346319
0.9996857926603742
0.9996871833120192
0.999688646950606
0.9996901820907442
0.9996917870908912
0.9996934601433858
0.9996951992644552
0.9996970022843791
0.9996988668380087
0.9997007903558227
0.9997027700557082
0.9997048029356403
0.9997068857674334
0.9997090150917332
0.9997111872144003
0.9997133982044524
0.9997156438936802
0.9997179198781034
0.9997202215213523
0.9997225439601122
0.9997248821116933
0.9997272306838393
0.9997295841867915
0.9997319369476989
0.999734283127342
0.9997366167392221
0.9997389316709432
0.9997412217078899
0.9997434805590757
0.9997457018851204
0.9997478793281792
0.9997500065437286
0.9997520772339825
0.999754085182796
0.9997560242917725
0.9997578886173998
0.9997596724088769
0.9997613701464265
0.9997629765797202
0.9997644867661815
0.9997658961087776
0.999767200393056
0.9997683958230251
0.999769479055646
0.9997704472335486
0.9997712980157595
0.9997720296060932
0.9997726407790365
0.9997731309028288
0.9997734999596342
0.9997737485625753
0.9997738779696079
0.99977389009409
0.9997737875121111
0.999773573466539
0.9997732518679393
0.9997728272924159
0.9997723049766312
0.9997716908101281
0.9997709913252806
0.9997702136850541
0.9997693656689197
0.999768455657085
0.9997674926133164
0.9997664860663509
0.9997654460899247
0.9997643832810168
0.9997633087356634
0.9997622340207035
0.9997611711395039
0.9997601324888422
0.9997591308029253
0.9997581790690111
0.9997572904046321
0.9997564778882589
0.9997557543906205
0.9997551321536352
0.9997546222518434
0.9997542335704944
0.9997539741590162
0.9997538476745035
0.9997538702066406
0.999754047138226
0
0
0.9996875523563356
0.9996875456038472
0.9996873936259167
0.9996871126054138
0.9996867211771593
0.9996862346637734
0.9996856688006952
0.9996850384300705
0.9996843585468514
0.9996836434230901
0.9996829065343161
0.9996821603878243
0.999681416447239
0.999680685093636
0.9996799756534464
0.9996792964451559
0.9996786548386274
0.9996780573224725
0.999677509575915
0.9996770165410281
0.9996765824928786
0.9996762111066324
0.9996759055205986
0.999675668394948
0.9996755019656032
0.9996754080934569
0.9996753883087164
0.9996754438507038
0.9996755757030362
0.9996757846245942
0.9996760711762652
0.9996764357438974
0.9996768785574824
0.9996773997069918
0.9996779991549242
0.9996786767459565
0.9996794322137783
0.9996802651854801
0.9996811751835848
0.9996821616260679
0.9996832238244777
0.9996843609804608
0.9996855721808174
0.9996868563913858
0.9996882124498669
0.9996896390578763
0.9996911347723464
0.9996926979965406
0.999694326970812
0.9996960197633478
0.9996977742610417
0.9996995881607096
0.9997014589608051
0.9997033839538252
0.9997053602195639
0.9997073846193895
0.9997094537917006
0.9997115641487084
0.9997137118747071
0.9997158929259448
0.9997181030322522
0.9997203377005129
0.9997225922201114
0.9997248616704181
0.9997271409304207
0.9997294246905182
0.9997317074665699
0.999733983616162
0.9997362473571562
0.9997384927884287
0.9997407139128277
0.9997429046622116
0.9997450589245376
0.999747170572822
0.9997492334958921
0.9997512416306936
0.999753188996036
0.9997550697274795
0.9997568781132128
0.9997586086305763
0.9997602559830477
0.9997618151373094
0.9997632813601881
0.9997646502550688
0.9997659177975595
0.9997670803700046
0.9997681347946289
0.9997690783649198
0.9997699088750558
0.9997706246470226
0.9997712245552595
0.9997717080485294
0.9997720751689233
0.9997723265677474
0.9997724635182783
0.9997724879252261
0.9997724023309632
0.9997722099184445
0.9997719145109704
0.9997715205687961
0.9997710331828216
0.999770458065424
0.9997698015387276
0.9997690705204026
0.9997682725072794
0.9997674155568327
0.9997665082667282
0.9997655597522994
0.9997645796218527
0.9997635779492283
0.9997625652429948
0.9997615524108984
0.999760550717382
0.9997595717301788
0.9997586272539946
0.9997577292465767
0.9997568897092379
0.9997561205142559
0.9997554332238391
0.9997548388489891
0.9997543477058676
0.9997539686550454
0.9997537109140365
0.9997535824965182
0.9997535986009886
0.9997537707021347
0
0
0.9996882171282578
0.9996881305885237
0.9996879245345407
0.9996876102782697
0.999687201694481
0.9996867125849268
0.9996861563567937
0.9996855460043546
0.9996848943153676
0.999684213605717
0.9996835156576144
0.9996828115088582
0.9996821113678991
0.9996814245790253
0.9996807596196685
0.9996801241153325
0.9996795248752125
0.9996789679398634
0.9996784586346332
0.9996780016258395
0.9996776009774855
0.9996772602071503
0.9996769823395022
0.9996767699570019
0.9996766252470222
0.9996765500454095
0.9996765458760561
0.9996766139867305
0.9996767553809219
0.9996769708460667
0.999677260978014
0.9996776262021407
0.9996780667910423
0.9996785828792134
0.9996791744746922
0.9996798414680711
0.9996805836388762
0.9996814006597046
0.9996822920981399
0.9996832574168152
0.9996842959716683
0.9996854070087232
0.9996865896594677
0.9996878429351371
0.9996891657199853
0.9996905567638341
0.9996920146739917
0.9996935379068109
0.9996951247589927
0.9996967733588827
0.9996984816578748
0.999700247422151
0.9997020682248853
0.9997039414391115
0.9997058642313907
0.9997078335564649
0.9997098461530275
0.999711898540776
0.9997139870188743
0.999716107665969
0.9997182563418776
0.9997204286910624
0.999722620147999
0.9997248259445113
0.999727041119178
0.999729260528828
0.9997314788622109
0.9997336906558221
0.9997358903119237
0.9997380721187036
0.9997402302725736
0.9997423589024896
0.9997444520962677
0.9997465039287081
0.9997485084914705
0.9997504599244503
0.9997523524485602
0.9997541803996134
0.9997559382631711
0.9997576207100102
0.9997592226320341
0.9997607391782523
0.9997621657906255
0.9997634982393762
0.9997647326575548
0.9997658655744552
0.9997668939476697
0.9997678151933886
0.9997686272147598
0.99976932842794
0.9997699177856945
0.999770394798219
0.9997707595511065
0.9997710127201859
0.9997711555832267
0.9997711900283204
0.999771118559002
0.9997709442960004
0.9997706709757695
0.9997703029457559
0.9997698451566266
0.9997693031514681
0.9997686830522202
0.9997679915433739
0.9997672358531855
0.9997664237323758
0.9997655634304607
0.9997646636695141
0.9997637336152522
0.9997627828448349
0.9997618213106686
0.9997608592989714
0.9997599073820531
0.9997589763614773
0.9997580771981167
0.999757220924631
0.9997564185493925
0.9997556809357214
0.9997550186573423
0.9997544417900396
0.9997539599954177
0.9997535823258038
0.9997533183361965
0.9997531777883644
0.9997531731927831
0.999753314907694
0
0
0.9996890162750831
0.9996888374847366
0.999688563241495
0.9996882011730044
0.9996877622477154
0.9996872574005505
0.9996866977344989
0.9996860943767968
0.9996854582345398
0.9996847999192361
0.9996841296221738
0.9996834569777149
0.9996827909909795
0.9996821399814839
0.9996815115571391
0.9996809126150681
0.9996803493605801
0.9996798273370053
0.9996793514632332
0.9996789260764992
0.9996785549773503
0.9996782414752753
0.9996779884333424
0.999677798311358
0.9996776732065027
0.999677614891393
0.9996776248489301
0.9996777043041536
0.9996778542526904
0.9996780754861452
0.9996783686141616
0.9996787340835633
0.9996791721943934
0.9996796831132749
0.9996802668839792
0.9996809234356182
0.9996816525883879
0.999682454057271
0.9996833274536516
0.9996842722852358
0.9996852879542564
0.9996863737543277
0.9996875288659549
0.9996887523510446
0.999690043146432
0.9996914000567532
0.9996928217466978
0.9996943067329421
0.9996958533758179
0.9996974598709949
0.9996991242412461
0.9997008443285541
0.9997026177866357
0.9997044420741241
0.9997063144484994
0.9997082319609774
0.9997101914524574
0.999712189550716
0.9997142226689483
0.9997162870058143
0.9997183785470932
0.9997204930690726
0.999722626143763
0.9997247731460288
0.9997269292627208
0.9997290895038485
0.9997312487158633
0.9997334015970437
0.9997355427150261
0.9997376665264195
0.9997397673985153
0.9997418396329784
0.9997438774914892
0.9997458752231697
0.9997478270937152
0.9997497274160149
0.9997515705821448
0.9997533510964525
0.9997550636095817
0.9997567029531156
0.9997582641746494
0.9997597425729265
0.9997611337328398
0.9997624335598921
0.9997636383139199
0.9997647446416541
0.9997657496079336
0.9997666507251463
0.9997674459807417
0.9997681338624154
0.9997687133808392
0.9997691840895924
0.9997695461022184
0.9997698001061169
0.9997699473732733
0.9997699897675966
0.9997699297489475
0.9997697703737045
0.9997695152920195
0.9997691687416806
0.9997687355388002
0.9997682210652937
0.999767631253401
0.9997669725672265
0.9997662519815396
0.9997654769577488
0.9997646554172042
0.9997637957115697
0.9997629065901886
0.9997619971639352
0.9997610768651007
0.9997601554021044
0.999759242707966
0.9997583488814604
0.9997574841205878
0.9997566586432711
0.9997558825965394
0.9997551659585381
0.9997545184631507
0.9997539494901805
0.9997534681360022
0.9997530832674072
0.9997528039309775
0.9997526393938905
0.999752600644103
0.9997526956010258
0
0
0.9996899212362498
0.9996896423525091
0.9996892897589913
0.9996888691475466
0.999688388689796
0.9996878567474018
0.999687282407454
0.9996866749028389
0.999686043418789
0.9996853969862151
0.9996847443370714
0.9996840938073976
0.9996834532531996
0.9996828299886569
0.9996822307547064
0.9996816617081625
0.9996811284255872
0.9996806359198619
0.9996801886657262
0.9996797906312865
0.999679445312649
0.9996791557704877
0.9996789246667415
0.9996787543008442
0.9996786466443013
0.9996786033735219
0.9996786259001302
0.999678715398929
0.9996788728329851
0.9996790989761639
0.9996793944327325
0.9996797596544457
0.999680194954827
0.9996807005210943
0.9996812764235151
0.999681922622643
0.9996826389742709
0.9996834252325477
0.9996842810511325
0.9996852059828113
0.9996861994774869
0.9996872608789399
0.9996883894203094
0.999689584218657
0.9996908442685896
0.999692168435289
0.9996935554469323
0.9996950038868367
0.9996965121853364
0.99969807861169
0.9996997012660521
0.9997013780717917
0.9997031067681929
0.9997048849038043
0.9997067098304927
0.9997085786984342
0.9997104884521139
0.9997124358275409
0.9997144173507563
0.9997164293378088
0.9997184678962843
0.9997205289285302
0.9997226081366469
0.9997247010293634
0.9997268029308528
0.9997289089915599
0.9997310142010831
0.9997331134031371
0.9997352013126075
0.9997372725346755
0.9997393215859961
0.999741342917841
0.9997433309411708
0.9997452800534709
0.9997471846672886
0.9997490392402408
0.9997508383063946
0.9997525765087285
0.9997542486325448
0.9997558496394885
0.9997573747020035
0.9997588192378554
0.999760178944517
0.9997614498330188
0.9997626282610581
0.9997637109649429
0.999764695090182
0.9997655782202928
0.999766358403662
0.9997670341780559
0.9997676045926537
0.9997680692272348
0.9997684282084596
0.9997686822229177
0.999768832526962
0.9997688809530618
0.9997688299127707
0.9997686823961139
0.9997684419675607
0.9997681127584572
0.9997676994561442
0.9997672072896788
0.9997666420124264
0.9997660098814486
0.9997653176339444
0.9997645724606221
0.9997637819761881
0.9997629541867084
0.9997620974538403
0.9997612204554529
0.9997603321424294
0.999759441691007
0.9997585584500283
0.9997576918817475
0.9997568514969026
0.9997560467848053
0.9997552871393659
0.9997545817780948
0.9997539396869406
0.99975336958151
0.999752879937069
0.9997524790679769
0.9997521753116115
0.9997519766817572
0.9997518924947393
0.9997519292204519
0
0
0.9996909065262236
0.9996905223210999
0.9996900845793462
0.9996895974483133
0.9996890665138377
0.9996884982264213
0.999687899790535
0.9996872786711912
0.999686642483895
0.9996859988036821
0.9996853550282027
0.999684718281451
0.9996840953285259
0.9996834925176673
0.9996829157422897
0.9996823704203422
0.9996818614890602
0.9996813934122807
0.9996809701960987
0.9996805954109902
0.9996802722178917
0.9996800033970605
0.9996797913777514
0.99967963826823
0.9996795458848124
0.9996795157798621
0.9996795492678189
0.9996796474494539
0.9996798112336887
0.999680041357326
0.9996803384022004
0.9996807028101762
0.9996811348956199
0.9996816348558089
0.9996822027789807
0.9996828386505057
0.9996835423569331
0.999684313688395
0.999685152339164
0.9996860579068286
0.9996870298899267
0.999688067684469
0.9996891705792372
0.9996903377502593
0.9996915682543731
0.9996928610222626
0.9996942148508982
0.9996956283957443
0.9996971001626898
0.9996986285000399
0.999700211590548
0.999701847443801
0.9997035338889603
0.9997052685681423
0.9997070489304678
0.999708872227029
0.9997107355068221
0.9997126356138737
0.9997145691856099
0.9997165326526696
0.9997185222402227
0.9997205339709527
0.9997225636697684
0.9997246069703661
0.9997266593236974
0.9997287160084245
0.9997307721433986
0.9997328227021995
0.999734862529748
0.9997368863609725
0.9997388888415173
0.9997408645504151
0.9997428080246741
0.9997447137856414
0.9997465763670623
0.9997483903446245
0.9997501503668736
0.9997518511872348
0.9997534876969798
0.9997550549588268
0.9997565482409786
0.9997579630512424
0.9997592951710167
0.9997605406887461
0.9997616960326374
0.9997627580022007
0.9997637237984267
0.9997645910521645
0.9997653578505233
0.9997660227608911
0.9997665848524309
0.9997670437146801
0.9997673994731786
0.99976765280179
0.9997678049317245
0.9997678576569834
0.99976781333631
0.99976767489144
0.9997674458018047
0.9997671300955452
0.9997667323370637
0.999766257611003
0.9997657115029329
0.9997651000766391
0.9997644298483056
0.9997637077574499
0.9997629411348464
0.9997621376672138
0.9997613053587993
0.9997604524895035
0.9997595875694634
0.9997587192896411
0.9997578564685844
0.999757007994934
0.9997561827656605
0.9997553896209512
0.9997546372810523
0.9997539342849258
0.9997532889421833
0.9997527093088978
0.9997522031883541
0.9997517781194106
0.9997514415692567
0.9997512004459882
0.9997510620949537
0.9997510318463363
0
0
0.9996919490077876
0.9996914567770302
0.9996909295041007
0.9996903699201145
0.9996897816658127
0.9996891696149653
0.9996885392699781
0.9996878965702639
0.999687247702389
0.9996865989058934
0.9996859563512597
0.9996853260358501
0.9996847137018143
0.9996841247777057
0.999683564336251
0.9996830370693737
0.9996825472768955
0.9996820988664237
0.9996816953614377
0.9996813399162131
0.9996810353349391
0.9996807840940332
0.9996805883657818
0.9996804500429096
0.9996803707626783
0.9996803519304841
0.9996803947419305
0.999680500203612
0.9996806691518275
0.9996809022696119
0.9996812001014834
0.999681563066379
0.9996819914682934
0.999682485505138
0.9996830452754236
0.9996836707832909
0.999684361941562
0.9996851185733288
0.9996859404118097
0.9996868270989638
0.999687778182645
0.999688793112766
0.9996898712362802
0.9996910117914369
0.9996922139011516
0.9996934765659127
0.9996947986561029
0.9996961789041363
0.9996976158963031
0.9996991080647155
0.9997006536792569
0.9997022508399153
0.9997038974694236
0.9997055913065576
0.9997073299000487
0.9997091106034207
0.999710930570739
0.9997127867535471
0.9997146758989989
0.9997165945494229
0.9997185390433455
0.9997205055181699
0.9997224899145393
0.9997244879825467
0.9997264952898155
0.9997285072315623
0.9997305190426633
0.9997325258117785
0.9997345224975405
0.9997365039468048
0.9997384649149368
0.9997404000880832
0.9997423041073598
0.9997441715948427
0.9997459971812621
0.9997477755352159
0.9997495013937651
0.9997511695941662
0.9997527751065713
0.9997543130673776
0.9997557788130442
0.9997571679139964
0.9997584762084172
0.9997596998355113
0.9997608352680258
0.999761879343597
0.9997628292947092
0.9997636827768361
0.9997644378945687
0.999765093225314
0.999765647840419
0.9997661013233272
0.9997664537846871
0.9997667058740631
0.9997668587882471
0.9997669142758782
0.9997668746384438
0.9997667427274481
0.999766521937892
0.9997662161979081
0.9997658299547832
0.9997653681572436
0.9997648362342896
0.9997642400704845
0.9997635859779938
0.9997628806652687
0.9997621312026479
0.9997613449847184
0.9997605296896407
0.9997596932352303
0.999758843731979
0.9997579894327066
0.9997571386790923
0.9997562998453288
0.9997554812798528
0.999754691245356
0.9997539378604432
0.9997532290466897
0.9997525724833773
0.9997519755731945
0.9997514454346069
0.9997509888244186
0.9997506122337714
0.9997503215990676
0.9997501225663113
0.9997500193194067
0
0
0.9996930281793043
0.9996924269725971
0.999691807466596
0.9996911712594377
0.9996905205754143
0.999689858900531
0.9996891903120728
0.9996885194279667
0.9996878511452196
0.999687190498815
0.9996865425361077
0.9996859122131305
0.9996853043163079
0.9996847234036093
0.9996841737614902
0.9996836593774291
0.999683183924182
0.9996827507546496
0.999682362904607
0.9996820231020341
0.9996817337805975
0.9996814970966247
0.9996813149476779
0.9996811889924492
0.9996811206705093
0.9996811112219846
0.9996811617060445
0.9996812730184853
0.9996814459075449
0.9996816809883748
0.9996819787554851
0.9996823395936607
0.9996827637867984
0.9996832515252027
0.9996838029108729
0.9996844179613492
0.9996850966116995
0.9996858387152224
0.9996866440425112
0.9996875122794173
0.9996884430236218
0.9996894357803279
0.9996904899568188
0.9996916048563753
0.9996927796713305
0.9996940134757292
0.999695305217407
0.9996966537099302
0.9996980576242355
0.9996995154803974
0.9997010256393848
0.9997025862952085
0.9997041954673538
0.99970585099387
0.9997075505250422
0.9997092915179849
0.9997110712321067
0.9997128867257616
0.9997147348540509
0.9997166122680599
0.9997185154155066
0.9997204405430546
0.9997223837002729
0.9997243407454453
0.9997263073532324
0.999728279024321
0.9997302510970649
0.9997322187612067
0.999734177073653
0.999736120976346
0.9997380453161763
0.9997399448669118
0.9997418143530674
0.9997436484756095
0.9997454419393946
0.9997471894821672
0.999748885904969
0.9997505261037275
0.9997521051018382
0.9997536180834379
0.9997550604271646
0.999756427740034
0.999757715891219
0.9997589210453094
0.9997600396948335
0.9997610686915961
0.9997620052766132
0.9997628471081942
0.9997635922879765
0.9997642393844751
0.9997647874539903
0.9997652360584725
0.9997655852802458
0.9997658357332306
0.9997659885706547
0.9997660454889412
0.9997660087278534
0.9997658810666448
0.9997656658163911
0.999765366808308
0.9997649883783082
0.9997645353476641
0.9997640130000849
0.9997634270551056
0.9997627836381343
0.9997620892470573
0.9997613507157541
0.9997605751744073
0.9997597700069384
0.9997589428054178
0.9997581013218149
0.9997572534170357
0.999756407007684
0.9997555700106523
0.9997547502867662
0.9997539555843392
0.9997531934840356
0.9997524713473658
0.999751796270837
0.999751175037584
0.9997506140914527
0.9997501194658173
0.9997496967422229
0.9997493509232426
0.9997490863609622
0.9997489062259663
0
0
0.9996941259215275
0.9996934159203452
0.9996927027470651
0.9996919871642619
0.9996912702953428
0.999690554466813
0.9996898425827566
0.9996891380986019
0.9996884447738942
0.9996877665651652
0.9996871074957977
0.999686471563657
0.9996858626660062
0.9996852845421174
0.9996847407308065
0.999684234541699
0.999683769037103
0.9996833470237547
0.9996829710516609
0.999682643419219
0.9996823661823668
0.9996821411672946
0.9996819699848302
0.9996818540463787
0.9996817945799302
0.9996817926463009
0.9996818491544095
0.9996819648759702
0.9996821404586299
0.9996823764380633
0.9996826732482252
0.9996830312303467
0.9996834506400037
0.9996839316528826
0.9996844743686635
0.9996850788136562
0.9996857449416885
0.999686472633869
0.9996872616967899
0.9996881118597685
0.999689022770749
0.9996899939914382
0.9996910249913386
0.9996921151412302
0.9996932637058044
0.9996944698359703
0.9996957325605778
0.9996970507780534
0.9996984232477195
0.9996998485812754
0.9997013252342433
0.9997028514978249
0.9997044254910119
0.9997060451533656
0.9997077082383391
0.9997094123075296
0.9997111547257648
0.9997129326573757
0.9997147430635851
0.9997165827013376
0.9997184481235061
0.999720335680775
0.9997222415251399
0.9997241616152819
0.9997260917237679
0.9997280274462708
0.9997299642127742
0.99973189730089
0.9997338218512393
0.9997357328849706
0.9997376253233377
0.999739494009347
0.9997413337313684
0.9997431392486441
0.999744905318561
0.9997466267255426
0.999748298311392
0.9997499150068694
0.9997514718642991
0.999752964090917
0.9997543870827357
0.9997557364585636
0.9997570080939384
0.9997581981545703
0.9997593031290386
0.999760319860303
0.9997612455757924
0.9997620779156101
0.9997628149586436
0.9997634552461314
0.9997639978025163
0.9997644421531647
0.9997647883388474
0.9997650369266057
0.9997651890169775
0.9997652462472679
0.9997652107909286
0.9997650853527937
0.9997648731603412
0.9997645779507804
0.9997642039542342
0.9997637558728701
0.9997632388563221
0.9997626584733098
0.9997620206798329
0.9997613317838828
0.9997605984070764
0.9997598274431524
0.9997590260137643
0.9997582014215209
0.9997573611007331
0.9997565125658936
0.9997556633585554
0.9997548209927739
0.9997539928999863
0.9997531863740927
0.9997524085177327
0.9997516661897552
0.9997509659565822
0.9997503140390618
0.9997497162596732
0.9997491779872765
0.9997487040358005
0.999748298578477
0.9997479649633889
0.9997477055814816
0
0
0.9996952261235422
0.999694408244659
0.9996936009167036
0.999692804270862
0.9996920185564416
0.9996912451652393