# vtk DataFile Version 2.0
2D-ADE data file 
ASCII
DATASET RECTILINEAR_GRID
DIMENSIONS 128 128 1 
X_COORDINATES 128 int
0 1 2 3 4 5 6 7 8 9 10 11 12 13 14 15 16 17 18 19 20 21 22 23 24 25 26 27 28 29 30 31 32 33 34 35 36 37 38 39 40 41 42 43 44 45 46 47 48 49 50 51 52 53 54 55 56 57 58 59 60 61 62 63 64 65 66 67 68 69 70 71 72 73 74 75 76 77 78 79 80 81 82 83 84 85 86 87 88 89 90 91 92 93 94 95 96 97 98 99 100 101 102 103 104 105 106 107 108 109 110 111 112 113 114 115 116 117 118 119 120 121 122 123 124 125 126 127 
Y_COORDINATES 128 int
0 1 2 3 4 5 6 7 8 9 10 11 12 13 14 15 16 17 18 19 20 21 22 23 24 25 26 27 28 29 30 31 32 33 34 35 36 37 38 39 40 41 42 43 44 45 46 47 48 49 50 51 52 53 54 55 56 57 58 59 60 61 62 63 64 65 66 67 68 69 70 71 72 73 74 75 76 77 78 79 80 81 82 83 84 85 86 87 88 89 90 91 92 93 94 95 96 97 98 99 100 101 102 103 104 105 106 107 108 109 110 111 112 113 114 115 116 117 118 119 120 121 122 123 124 125 126 127 
Z_COORDINATES 1 int
0
POINT_DATA 16384
SCALARS density double
LOOKUP_TABLE default
0
0
0
0
0
0
0
0
0
0
0
0
0
0
0
0
0
0
0
0
0
0
0
0
0
0
0
0
0
0
0
0
0
0
0
0
0
0
0
0
0
0
0
0
0
0
0
0
0
0
0
0
0
0
0
0
0
0
0
0
0
0
0
0
0
0
0
0
0
0
0
0
0
0
0
0
0
0
0
0
0
0
0
0
0
0
0
0
0
0
0
0
0
0
0
0
0
0
0
0
0
0
0
0
0
0
0
0
0
0
0
0
0
0
0
0
0
0
0
0
0
0
0
0
0
0
0
0
0
1.0000586605583544
1.000058144099922
1.0000576989163594
1.0000573880801913
1.0000570102330626
1.0000565496968408
1.0000560386095805
1.0000554938751778
1.0000549227491153
1.0000543304570044
1.0000537190935612
1.0000530865374824
1.0000524269198168
1.0000517313583217
1.0000509885361237
1.0000501852280632
1.0000493068111762
1.000048337735131
1.0000472619425975
1.0000460632433847
1.000044725647453
1.000043233660646
1.0000415725463587
1.0000397285556784
1.0000376891277936
1.000035443061758
1.000032980660203
1.00003029384526
1.0000273762468068
1.0000242232631398
1.0000208320942816
1.000017201748329
1.0000133330215186
1.0000092284529722
1.0000048922554259
1.0000003302235598
0.9999955496218774
0.9999905590543736
0.9999853683185118
0.999979988246253
0.9999744305350915
0.999968707572177
0.9999628322547165
0.9999568178098719
0.9999506776173649
0.9999444250379109
0.9999380732504807
0.9999316351011867
0.999925122966357
0.9999185486320552
0.9999119231919708
0.9999052569652308
0.9998985594352694
0.9998918392104656
0.9998851040068213
0.999878360652481
0.9998716151134772
0.999864872539625
0.9998581373290881
0.9998514132097526
0.9998447033351935
0.9998380103927207
0.999831336720732
0.9998246844324116
0.9998180555426657
0.999811452095132
0.9998048762860772
0.9997983305820667
0.999791817828429
0.999785341345714
0.9997789050116246
0.9997725133262001
0.9997661714584072
0.9997598852727106
0.9997536613346418
0.9997475068948565
0.9997414298516824
0.999735438692633
0.999729542415881
0.9997237504331303
0.9997180724557942
0.9997125183667697
0.9997070980804503
0.9997018213939223
0.9996966978324864
0.9996917364928196
0.9996869458871426
0.9996823337917646
0.9996779071032895
0.9996736717056014
0.9996696323505349
0.999665792554834
0.9996621545156607
0.9996587190465412
0.9996554855351993
0.9996524519243039
0.9996496147157092
0.9996469689983289
0.9996445084993727
0.9996422256583111
0.999640111722625
0.9996381568641567
0.9996363503147886
0.9996346805201535
0.999633135310264
0.9996317020862776
0.9996303680231451
0.9996291202886105
0.9996279462799453
0.9996268338807571
0.9996257717410412
0.9996247495843494
0.9996237585471914
0.999622791554623
0.999621843722998
0.9996209127672637
0.9996199994466892
0.9996191081484797
0.9996182472330657
0.9996174279496668
0.9996166633604116
0.9996159756131949
0.9996154018100969
0.9996149329211909
0.9996143726960092
0.9996137800356386
0
0
1.0000580659385858
1.0000579210955962
1.0000576740616904
1.0000573682951934
1.0000570117723337
1.0000566115533083
1.0000561682696385
1.0000556885182472
1.0000551800721436
1.0000546468043403
1.0000540886569445
1.0000535023604655
1.0000528817376424
1.0000522179668085
1.0000515000130055
1.000050715100052
1.000049849157671
1.0000488872366318
1.0000478138941147
1.0000466135467094
1.000045270790181
1.000043770687059
1.0000420990235723
1.0000402425371695
1.0000381891154901
1.000035927967353
1.000033449766045
1.0000307467650504
1.0000278128862783
1.0000246437809088
1.0000212368630952
1.000017591316964
1.000013708077626
1.0000095897871777
1.0000052407270137
1.0000006667280597
0.9999958750608725
0.9999908743078159
0.9999856742198153
0.9999802855603992
0.9999747199399391
0.9999689896431295
0.9999631074528469
0.9999570864735556
0.9999509399574135
0.9999446811361399
0.9999383230615867
0.9999318784577483
0.9999253595867079
0.9999187781307384
0.9999121450924136
0.9999054707142501
0.9998987644189692
0.999892034771069
0.9998852894599589
0.9998785353044515
0.9998717782780022
0.999865023553641
0.9998582755671422
0.9998515380966173
0.9998448143563613
0.9998381071025059
0.9998314187477713
0.9998247514824301
0.9998181073984631
0.9998114886138094
0.9998048973936184
0.9997983362654626
0.999791808125604
0.9997853163335862
0.9997788647926855
0.9997724580140452
0.9997661011626965
0.9997598000840457
0.9997535613098686
0.9997473920432923
0.9997413001227534
0.9997352939653756
0.9997293824907171
0.9997235750262801
0.9997178811966237
0.999712310798303
0.9997068736632079
0.9997015795131631
0.9996964378088655
0.9996914575963894
0.99968664735456
0.9996820148465007
0.9996775669785753
0.9996733096698005
0.9996692477345784
0.999665384781336
0.9996617231292982
0.9996582637452734
0.9996550062019065
0.9996519486584291
0.9996490878645139
0.9996464191874074
0.9996439366621253
0.9996416330641364
0.9996395000036511
0.9996375280404277
0.9996357068178634
0.9996340252151151
0.9996324715161138
0.999631033594551
0.9996296991142946
0.9996284557451549
0.9996272913944649
0.9996261944554942
0.9996251540742108
0.9996241604356545
0.999623205069537
0.9996222811730855
0.9996213839538803
0.9996205109873029
0.9996196625305512
0.9996188416768199
0.9996180545549971
0.9996173109418763
0.9996166242362478
0.9996160065229968
0.9996154638064869
0.9996150080633943
0.9996146520102813
0.9996144392623231
0
0
1.000057770368567
1.0000578159242832
1.000057682990148
1.0000573992244366
1.0000570765308479
1.0000567170603005
1.0000563169461698
1.0000558831061128
1.0000554211760442
1.0000549321701704
1.0000544143975578
1.0000538637279166
1.0000532734600824
1.0000526345450604
1.000051935994917
1.0000511652710153
1.000050308658089
1.0000493516332645
1.000048279219813
1.0000470763165101
1.0000457280005608
1.0000442198038038
1.000042537962007
1.0000406696372137
1.0000386031131814
1.0000363279639308
1.0000338351953555
1.0000311173597958
1.000028168643541
1.0000249849273048
1.0000215638199008
1.0000179046655568
1.00001400852557
1.0000098781353008
1.00000551783781
1.0000009334957478
0.9999961323834189
0.9999911230612215
0.9999859152349272
0.9999805196024873
0.9999749476912281
0.9999692116884458
0.9999633242684898
0.999957298419447
0.9999511472725314
0.9999448839371814
0.9999385213447476
0.9999320721034508
0.9999255483670495
0.9999189617193739
0.9999123230765475
0.9999056426083558
0.9998989296798295
0.9998921928136963
0.999885439673939
0.9998786770702532
0.9998719109827926
0.9998651466061694
0.9998583884112828
0.9998516402232007
0.9998449053129757
0.9998381865010051
0.9998314862692986
0.9998248068798357
0.9998181504960693
0.999811519304559
0.9998049156337159
0.9997983420666954
0.9997918015455983
0.9997852974643185
0.9997788337476222
0.9997724149143302
0.9997660461228371
0.999759733197568
0.9997534826354194
0.9997473015916647
0.9997411978452833
0.9997351797441372
0.9997292561308956
0.9997234362510534
0.9997177296448188
0.9997121460250342
0.9997066951436294
0.9997013866493983
0.999696229940102
0.9996912340120622
0.9996864073104776
0.9996817575837046
0.9996772917446793
0.9996730157424961
0.9996689344469735
0.9996650515487437
0.9996613694770926
0.9996578893374095
0.999654610869699
0.9996515324292009
0.9996486509897385
0.9996459621699947
0.9996434602825365
0.9996411384050445
0.9996389884729145
0.9996370013921536
0.999635167171357
0.9996334750714789
0.9996319137721507
0.9996304715534344
0.9996291364921168
0.9996278966719295
0.9996267404073392
0.9996256564806736
0.9996246343924522
0.9996236646248623
0.9996227389169777
0.9996218505438931
0.9996209945912162
0.9996201682343577
0.9996193710331969
0.9996186050554515
0.9996178746755425
0.9996171867319054
0.9996165523263422
0.999615983719382
0.9996154825683952
0.9996150548970404
0.9996148150023907
0.9996147943719549
0
0
1.0000579015412043
1.0000578958974617
1.0000577475151444
1.0000575023749776
1.0000572041944928
1.000056859498069
1.0000564829964382
1.0000560790130661
1.00005564779903
1.0000551886353855
1.0000546989604013
1.0000541735687372
1.0000536049628073
1.000052983718024
1.0000522987408844
1.0000515375557002
1.0000506866382564
1.0000497317501573
1.0000486582584573
1.0000474514388187
1.00004609676001
1.0000445801467126
1.000042888218928
1.0000410085070908
1.0000389296422587
1.0000366415208422
1.0000341354434403
1.0000314042274345
1.0000284422931371
1.0000252457234438
1.0000218122971534
1.000018141496347
1.00001423448852
1.0000100940844305
1.0000057246729601
1.0000011321345699
0.9999963237352621
0.9999913080032083
0.999986094590488
0.9999806941225832
0.9999751180384541
0.9999693784241622
0.999963487843081
0.9999574591657543
0.999951305402455
0.9999450395413879
0.9999386743953671
0.9999322224595837
0.9999256957828556
0.9999191058544618
0.9999124635083345
0.9999057788460335
0.9998990611795254
0.9998923189944147
0.9998855599338338
0.9998787908027883
0.9998720175923566
0.9998652455227139
0.9998584791036065
0.9998517222105135
0.9998449781744472
0.9998382498830463
0.999831539890393
0.9998248505328121
0.9998181840477681
0.9998115426929288
0.9998049288624477
0.9997983451975726
0.9997917946888075
0.9997852807670288
0.9997788073811862
0.9997723790605151
0.9997660009595076
0.9997596788842815
0.99975341929939
0.9997472293145494
0.9997411166512313
0.9997350895895103
0.999729156896032
0.9997233277343961
0.999717611559676
0.9997120179991744
0.9997065567218534
0.9997012372991514
0.9996960690601318
0.9996910609440525
0.9996862213535264
0.9996815580114606
0.9996770778248838
0.9996727867586478
0.999668689721783
0.9996647904690168
0.9996610915196646
0.9996575940957305
0.9996542980806724
0.9996512019998759
0.9996483030234661
0.9996455969916763
0.9996430784626035
0.9996407407818308
0.9996385761730888
0.9996365758488782
0.9996347301398009
0.9996330286412394
0.9996314603759991
0.99963001397156
0.9996286778506698
0.9996274404341257
0.9996262903547135
0.9996252166812499
0.9996242091511212
0.9996232584087106
0.9996223562480469
0.9996214958587825
0.9996206720627359
0.9996198814996244
0.9996191227806243
0.9996183967390891
0.9996177066862005
0.9996170575949489
0.9996164551998402
0.9996159088368678
0.9996154376226447
0.9996150517992347
0.999614797462988
0.9996147243311355
0
0
1.000058240149134
1.0000581246607356
1.0000579308755206
1.000057679951691
1.0000573748250408
1.0000570336270898
1.0000566677138838
1.0000562772015134
1.0000558618573898
1.0000554199032572
1.0000549470501494
1.000054436895647
1.0000538812725182
1.0000532703296525
1.0000525927299702
1.0000518359369637
1.0000509865094207
1.0000500303903106
1.0000489531946868
1.000047740490126
1.0000463780627395
1.0000448521652399
1.0000431497451134
1.0000412586512681
1.000039167817794
1.0000368674238294
1.0000343490287438
1.0000316056820593
1.0000286320077074
1.0000254242624578
1.00002198036859
1.00001829992114
1.0000143841703732
1.0000102359804117
1.0000058597652752
1.0000012614038982
0.9999964481359916
0.9999914284408871
0.9999862119017621
0.9999808090578538
0.9999752312474492
0.9999694904445601
0.999963599092275
0.9999575699358055
0.9999514158582035
0.9999451497216565
0.9999387842171175
0.9999323317248432
0.999925804188164
0.9999192130025546
0.9999125689217145
0.9999058819820573
0.9998991614466014
0.9998924157688748
0.9998856525770355
0.9998788786780086
0.9998721000810294
0.9998653220396042
0.9998585491105173
0.9998517852281912
0.9998450337923712
0.9998382977668674
0.999831579786835
0.9998248822719259
0.9998182075424977
0.9998115579360222
0.9998049359208188
0.9997983442042908
0.9997917858329587
0.9997852642817472
0.999778783530216
0.9997723481236961
0.9997659632176183
0.9997596346036882
0.9997533687169612
0.9997471726232976
0.9997410539871188
0.9997350210198375
0.9997290824097902
0.9997232472349115
0.9997175248598278
0.9997119248194049
0.9997064566911181
0.9997011299588991
0.999695953871326
0.9996909372971847
0.9996860885815002
0.9996814154051704
0.9996769246512507
0.9996726222808336
0.9996685132212502
0.9996646012690793
0.9996608890101412
0.9996573777582967
0.9996540675144956
0.9996509569471151
0.999648043394217
0.9996453228879463
0.9996427902009078
0.9996404389140047
0.9996382615048912
0.999636249455952
0.9996343933804852
0.999632683165646
0.9996311081305952
0.9996296571982767
0.9996283190792289
0.9996270824658089
0.9996259362350914
0.9996248696586378
0.9996238726172729
0.9996229358177755
0.9996220510054677
0.999621211167275
0.9996204107307411
0.999619645748232
0.9996189139957022
0.9996182149589137
0.9996175500711704
0.9996169230197566
0.9996163387923239
0.999615802349069
0.9996153289526654
0.9996149400042911
0.999614641180971
0.9996144555845653
0
0
1.0000586915236336
1.0000584723142132
1.0000582127526425
1.0000579164835872
1.0000575876403843
1.0000572368635647
1.0000568655631663
1.0000564745684113
1.000056062960919
1.0000556267277882
1.0000551600891536
1.0000546557829728
1.0000541049232945
1.00005349711804
1.0000528207241093
1.0000520630818734
1.000051210754057
1.0000502497847497
1.000049165963723
1.0000479450839903
1.0000465731886627
1.0000450368042133
1.0000433231570485
1.0000414203709425
1.000039317643573
1.0000370054007945
1.00003447542755
1.0000317209745881
1.0000287368404166
1.0000255194281873
1.0000220667774855
1.0000183785712924
1.0000144561187
1.0000103023142664
1.0000059215752302
1.000001319758107
0.9999965040564949
0.9999914828821874
0.9999862657319541
0.999980863042547
0.9999752860366733
0.9999695465627922
0.999963656931678
0.9999576297526946
0.9999514777727253
0.9999452137205831
0.9999388501596107
0.9999323993509819
0.9999258731299843
0.9999192827972823
0.9999126390268464
0.9999059517918935
0.99989923030981
0.9998924830066445
0.9998857175013627
0.9998789406096622
0.9998721583667501
0.9998653760681103
0.9998585983269235
0.9998518291464844
0.9998450720056421
0.9998383299550495
0.9998316057217675
0.9998249018196282
0.9998182206626159
0.999811564678479
0.9998049364197773
0.9997983386696057
0.9997917745393643
0.9997852475560873
0.999778761737073
0.9997723216498257
0.999765932455623
0.9997595999353918
0.9997533304969541
0.9997471311631164
0.9997410095405198
0.9997349737695935
0.9997290324563985
0.9997231945875672
0.9997174694299548
0.9997118664169766
0.9997063950239387
0.9997010646349428
0.9996958844041676
0.9996908631144746
0.9996860090363852
0.9996813297904826
0.9996768322162418
0.9996725222501668
0.9996684048159268
0.9996644837289368
0.9996607616175234
0.9996572398624838
0.9996539185564579
0.9996507964841468
0.9996478711240016
0.9996451386716043
0.9996425940845654
0.9996402311484158
0.9996380425626354
0.9996360200456712
0.9996341544575795
0.9996324359387356
0.999630854062905
0.9996293980028748
0.9996280567067607
0.9996268190830012
0.9996256741919148
0.9996246114412246
0.999623620782563
0.9996226929063451
0.9996218194317523
0.9996209930814245
0.9996202078281546
0.9996194590291769
0.9996187435747205
0.9996180599105091
0.9996174078186864
0.9996167885917622
0.9996162062117183
0.9996156659903646
0.9996151732179547
0.9996147415150547
0.9996143772033598
0.9996140851909117
0
0
1.000059216160215
1.0000588921104947
1.000058553360147
1.0000582001428415
1.0000578350380038
1.0000574584888244
1.0000570694262583
1.0000566673914153
1.0000562486533282
1.0000558077495816
1.000055337964814
1.0000548310508774
1.0000542773233427
1.000053665882951
1.0000529847740145
1.0000522211627318
1.000051361560169
1.000050392059352
1.0000492985725684
1.0000480670669623
1.0000466837944266
1.0000451355107247
1.000043409680253
1.0000414946639398
1.0000393798881986
1.0000370559932055
1.000034514959142
1.0000317502093539
1.0000287566897086
1.0000255309237125
1.0000220710432508
1.0000183767951567
1.0000144495241048
1.0000102921326761
1.0000059090197564
1.000001305998747
0.9999964901973681
0.9999914699411139
0.9999862546226647
0.9999808545597678
0.9999752808442743
0.9999695451851407
0.9999636597482647
0.9999576369960661
0.9999514895296685
0.9999452299364678
0.9999388706457241
0.99993242379464
0.999925901107141
0.999919313787313
0.9999126724291381
0.9999059869438319
0.9998992665057318
0.9998925195172916
0.9998857535933804
0.9998789755646678
0.9998721914995198
0.9998654067434505
0.9998586259748242
0.999851853275194
0.9998450922123576
0.9998383459339671
0.9998316172693158
0.9998249088367619
0.9998182231541358
0.9998115627494099
0.9998049302689106
0.9997983285803945
0.9997917608684123
0.9997852307195488
0.9997787421953271
0.9997722998908333
0.9997659089774159
0.999759575228162
0.9997533050252184
0.9997471053484472
0.9997409837452989
0.999734948282238
0.9997290074784682
0.9997231702231115
0.9997174456774162
0.9997118431638918
0.9997063720446288
0.9997010415913005
0.9996958608495854
0.9996908385008894
0.9996859827243353
0.9996813010620208
0.9996768002904745
0.9996724863011435
0.999668363992551
0.9996644371765306
0.9996607085006413
0.9996571793885469
0.9996538499997605
0.999650719209769
0.9996477846111548
0.9996450425359206
0.9996424880988417
0.9996401152612967
0.9996379169146962
0.9996358849823244
0.9996340105381583
0.9996322839410047
0.9996306949821268
0.999629233044369
0.9996278872706377
0.999626646739411
0.999625500644809
0.9996244384785387
0.9996234502102419
0.9996225264616013
0.9996216586707514
0.9996208392458136
0.9996200616960099
0.9996193207139327
0.9996186122328645
0.9996179335406467
0.9996172832822888
0.9996166611105748
0.9996160680231387
0.9996155077514688
0.9996149828714018
0.9996144966900293
0.9996140534392357
0.9996136544104681
0
0
1.0000597767156385
1.0000593483543694
1.0000589275297318
1.000058512988279
1.0000581008670393
1.0000576881331869
1.0000572723287975
1.0000568495754714
1.000056414297058
1.0000559600664196
1.0000554789984744
1.0000549618741639
1.0000543983561154
1.000053777071832
1.0000530857284682
1.0000523112975503
1.0000514402161498
1.0000504585937764
1.0000493524279026
1.000048107822379
1.000046711201413
1.0000451495147933
1.0000434104312252
1.0000414825168848
1.000039355396721
1.0000370198965702
1.0000344681645266
1.0000316937703635
1.0000286917821328
1.0000254588193724
1.0000219930827174
1.000018294360009
1.000014364009351
1.0000102049198891
1.000005821451429
1.0000012193543113
0.9999964056712833
0.9999913886233746
0.9999861774820185
0.9999807824298973
0.9999752144131275
0.9999694849875371
0.9999636061618558
0.999957590240652
0.9999514496698215
0.9999451968873468
0.9999388441819033
0.9999324035617155
0.9999258866358295
0.9999193045096982
0.9999126676966815
0.9999059860467301
0.9998992686931637
0.9998925240180987
0.9998857596366878
0.9998789823999847
0.9998721984158422
0.9998654130869351
0.9998586311646218
0.9998518568170763
0.9998450937098288
0.9998383450966016
0.9998316139181441
0.9998249029065803
0.9998182146927073
0.9998115519135854
0.999804917317786
0.9997983138656824
0.9997917448222869
0.9997852138402751
0.9997787250310458
0.9997722830219212
0.9997658929978717
0.9997595607264944
0.9997532925653332
0.9997470954510136
0.9997409768700865
0.9997349448118729
0.9997290077040303
0.9997231743319577
0.999717453743543
0.9997118551411136
0.9997063877627571
0.9997010607554628
0.9996958830427317
0.9996908631894723
0.9996860092670794
0.9996813287216199
0.9996768282480036
0.9996725136729081
0.9996683898490463
0.9996644605631382
0.9996607284596578
0.999657194982102
0.9996538603331651
0.9996507234548115
0.9996477820288484
0.9996450324981911
0.9996424701086337
0.999640088970554
0.9996378821396418
0.9996358417154287
0.9996339589561243
0.9996322244080053
0.9996306280474191
0.9996291594332491
0.9996278078675348
0.9996265625617046
0.9996254128055774
0.9996243481360486
0.9996233585023558
0.9996224344239344
0.9996215671343963
0.999620748706881
0.9996199721643163
0.999619231566838
0.9996185220293254
0.9996178397064086
0.9996171818985982
0.999616547083546
0.9996159342357317
0.9996153435226742
0.999614775852596
0.9996142308638231
0.9996137061744289
0.9996132014907044
0
0
1.000060340377882
1.00005981452393
1.000059314009588
1.000058835067596
1.0000583702695016
1.0000579153608777
1.0000574652812757
1.000057013962985
1.0000565547354872
1.0000560798770513
1.0000555804286935
1.0000550464446047
1.000054466999822
1.0000538302565225
1.0000531236104406
1.0000523338517808
1.0000514473349065
1.0000504501676772
1.0000493284114187
1.0000480682825033
1.000046656351266
1.00004507973472
1.0000433262792583
1.0000413847301601
1.0000392448853765
1.000036897731537
1.000034335560441
1.000031552064697
1.0000285424115025
1.0000253032939135
1.0000218329592914
1.0000181312149554
1.0000141994114213
1.0000100404039352
1.000005658493364
1.0000010593478108
0.9999962499066366
0.9999912382688356
0.9999860335679673
0.9999806458360491
0.9999750858589768
0.9999693650261597
0.9999634951771325
0.99995748844791
0.9999513571198299
0.9999451134735343
0.9999387696506103
0.9999323375252293
0.9999258285878957
0.999919253843157
0.9999126237228289
0.9999059480159669
0.9998992358164752
0.9998924954888817
0.9998857346524401
0.9998789601833671
0.9998721782346507
0.9998653942725257
0.9998586131283813
0.9998518390645696
0.9998450758523043
0.999838326859605
0.9998315951470443
0.9998248835689025
0.999818194877222
0.9998115318261965
0.9998048972743278
0.999798294281811
0.9997917262007204
0.9997851967557044
0.9997787101130906
0.9997722709365517
0.9997658844277589
0.9997595563507711
0.9997532930392654
0.9997471013860859
0.9997409888149892
0.9997349632348606
0.9997290329770867
0.9997232067171582
0.999717493381953
0.9997119020445013
0.9997064418083332
0.9997011216837886
0.9996959504588633
0.999690936567339
0.9996860879570174
0.9996814119609165
0.9996769151742415
0.999672603339834
0.9996684812446455
0.9996645526295372
0.9996608201144461
0.9996572851406282
0.9996539479313301
0.9996508074718714
0.9996478615097096
0.9996451065746742
0.9996425380191549
0.9996401500776674
0.9996379359448456
0.9996358878706122
0.9996339972709674
0.9996322548525899
0.9996306507492108
0.9996291746674852
0.9996278160399056
0.9996265641820754
0.9996254084514431
0.999624338404121
0.9996233439460344
0.9996224154750901
0.9996215440106739
0.9996207213028405
0.9996199399138712
0.999619193283747
0.9996184757767258
0.9996177826524749
0.9996171099784238
0.9996164547727666
0.9996158147261621
0.9996151876767962
0.999614571784716
0.9996139652837599
0.9996133621460092
0.999612759520445
0
0
1.000060884200557
1.000060270147823
1.0000596938626574
1.0000591499548377
1.0000586302577772
1.0000581289683008
1.000057639097989
1.0000571535002805
1.0000566643079225
1.0000561626676754
1.0000556388630875
1.0000550823067111
1.0000544815324408
1.0000538243141583
1.0000530977858217
1.0000522885732617
1.0000513829538271
1.0000503670330834
1.0000492269279881
1.0000479489536085
1.0000465198095274
1.0000449267612777
1.0000431578130302
1.0000412018685618
1.000039048877907
1.000036689967462
1.0000341175517213
1.000031325425195
1.0000283088334239
1.0000250645223439
1.000021590765611
1.000017887369846
1.0000139556581102
1.0000097984322678
1.0000054199152322
1.0000008256744104
0.9999960225279676
0.9999910184358093
0.9999858223774181
0.9999804442188922
0.9999748945716939
0.999969184645728
0.9999633260994483
0.9999573308896929
0.9999512111239313
0.9999449789175032
0.9999386462583165
0.9999322248812714
0.9999257261544815
0.99991916097908
0.9999125397041345
0.999905872057856
0.999899167095975
0.999892433167788
0.9998856779000401
0.9998789081984438
0.9998721302662932
0.9998653496392909
0.9998585712353888
0.9998517994181585
0.9998450380719308
0.9998382906867238
0.9998315604507891
0.9998248503484414
0.999818163260751
0.9998115020666114
0.9998048697416775
0.9997982694527299
0.9997917046450925
0.9997851791208822
0.9997786971060509
0.9997722633044138
0.999765882937129
0.9997595617664111
0.9997533061025893
0.9997471227939972
0.9997410191995577
0.999735003144323
0.999729082858617
0.9997232669018116
0.999717564072139
0.9997119833042765
0.9997065335567429
0.9997012236914103
0.9996960623476381
0.9996910578136965
0.9996862178982311
0.9996815498045504
0.9996770600104881
0.9996727541564773
0.9996686369443231
0.999664712048937
0.9996609820450184
0.9996574483503653
0.9996541111871347
0.9996509695620085
0.9996480212658199
0.9996452628928078
0.9996426898792712
0.9996402965610185
0.9996380762486545
0.9996360213194088
0.99963412332392
0.999632373106108
0.9996307609340289
0.9996292766393741
0.999627909763051
0.9996266497040404
0.9996254858685196
0.9996244078160811
0.9996234053993011
0.9996224688923492
0.9996215891053135
0.9996207574821713
0.9996199661738486
0.999619208078238
0.9996184768635966
0.9996177669889204
0.9996170736053759
0.9996163924588479
0.9996157198999482
0.9996150525413715
0.9996143865289785
0.9996137184671983
0.9996130415442699
0.9996123512706702
0
0
1.000061392827718
1.0000606991635033
1.0000600515711522
1.0000594442183002
1.0000588688895162
1.0000583185425636
1.0000577853037624
1.0000572611321445
1.0000567371477396
1.0000562037611267
1.0000556506307368
1.0000550666083503
1.0000544398087807
1.0000537577002508
1.0000530071985134
1.000052174797541
1.000051246720418
1.0000502090805174
1.0000490480516013
1.000047750043174
1.0000463018756962
1.000044690951642
1.000042905419127
1.0000409343250567
1.0000387677550784
1.0000363969580972
1.0000338144534717
1.0000310141193844
1.0000279912612107
1.000024742659081
1.000021266594178
1.000017562853664
1.0000136327144926
1.0000094789066956
1.0000051055570898
1.0000005181146625
0.9999957232591885
0.9999907287949314
0.9999855435314969
0.9999801771541232
0.9999746400858566
0.9999689433441651
0.999963098394619
0.9999571170042794
0.9999510110973995
0.9999447926159672
0.9999384733874803
0.9999320650021735
0.9999255787017003
0.999919025281024
0.999912415004981
0.999905757540688
0.9998990619066214
0.9998923364388691
0.9998855887747126
0.9998788258533371
0.9998720539331591
0.999865278624898
0.9998585049392458
0.9998517373476833
0.9998449798547462
0.9998382360798201
0.9998315093463617
0.9998248027762829
0.9998181193871634
0.9998114621898669
0.9998048342841463
0.9997982389498653
0.9997916797315309
0.9997851605139845
0.9997786855872707
0.9997722596989239
0.9997658880921798
0.9997595765289192
0.9997533312964753
0.9997471591977904
0.9997410675247856
0.9997350640151726
0.9997291567933319
0.999723354296245
0.9997176651858286
0.999712098249349
0.9997066622898916
0.9997013660091135
0.9996962178847206
0.9996912260452494
0.9996863981448405
0.9996817412407091
0.9996772616759951
0.999672964970564
0.9996688557221927
0.9996649375203445
0.9996612128744787
0.9996576831585372
0.9996543485728955
0.9996512081247111
0.9996482596272024
0.9996454997180044
0.999642923896366
0.9996405265785612
0.9996383011705386
0.9996362401565019
0.9996343352017942
0.9996325772681978
0.99963095673949
0.9996294635548759
0.9996280873476965
0.9996268175865879
0.9996256437159994
0.9996245552928044
0.99962354211574
0.9996225943439595
0.9996217026000408
0.9996208580547425
0.9996200524933617
0.9996192783565613
0.9996185287424614
0.9996177974030734
0.9996170787202071
0.9996163675691396
0.9996156591783103
0.999614949160648
0.9996142327057032
0.9996135051571473
0.9996127596875146
0.9996119913817785
0
0
1.0000618553103031
1.0000610893680784
1.0000603750224273
1.0000597065121635
1.0000590756913046
1.0000584749726498
1.0000578960196564
1.0000573300586957
1.0000567675887326
1.0000561984903598
1.000055611908854
1.000054996290152
1.000054339440664
1.0000536285911008
1.00005285049768
1.0000519915685055
1.0000510380014846
1.0000499759355013
1.0000487916113168
1.000047471536595
1.0000460026511067
1.00004437248882
1.0000425693334598
1.000040582364472
1.0000384017907864
1.0000360189701374
1.000033426512024
1.000030618362752
1.000027589871341
1.0000243378354372
1.0000208605267198
1.0000171576956394
1.0000132305556895
1.0000090817477412
1.0000047152853384
1.0000001364821451
0.999995351863045
0.9999903690606835
0.9999851966994577
0.9999798442691755
0.9999743219907654
0.9999686406765226
0.9999628115874543
0.9999568462902926
0.9999507565167169
0.9999445540272438
0.9999382504821119
0.9999318573213303
0.9999253856558239
0.9999188461713897
0.9999122490468926
0.9999056038878191
0.9998989196760119
0.9998922047360621
0.9998854667185103
0.9998787125996745
0.9998719486975842
0.999865180703209
0.9998584137258428
0.9998516523512616
0.9998449007109991
0.9998381625608929
0.9998314413668553
0.9998247403956994
0.9998180628087412
0.999811411755847
0.9998047904675856
0.999798202343182
0.9997916510320513
0.9997851405068181
0.9997786751259002
0.9997722596839498
0.9997658994487015
0.9997596001830554
0.9997533681515522
0.9997472101107326
0.9997411332832264
0.999735145315795
0.9997292542219145
0.9997234683098423
0.9997177960974751
0.9997122462156046
0.9997068273014873
0.9997015478848863
0.999696416268943
0.9996914404083952
0.9996866277877419
0.9996819853019927
0.9996775191426094
0.9996732346911473
0.9996691364229725
0.9996652278231964
0.9996615113167371
0.9996579882141006
0.9996546586741458
0.9996515216847275
0.999648575061739
0.9996458154666835
0.9996432384425163
0.9996408384671298
0.99963860902349
0.999636542685099
0.9996346312151541
0.9996328656774869
0.9996312365571184
0.9996297338880255
0.9996283473854981
0.9996270665802857
0.9996258809515416
0.9996247800553048
0.9996237536451543
0.9996227917820023
0.9996218849297318
0.99962102403231
0.9996202005703061
0.9996194066002115
0.9996186347661654
0.9996178782756514
0.9996171308701104
0.9996163867767689
0.9996156405072121
0.9996148868735917
0.9996141205615596
0.9996133363695838
0.9996125276306147
0.9996116895584913
0
0
1.0000622634460181
1.000061431402992
1.0000606545346928
1.0000599272873878
1.0000592417589262
1.0000585902169206
1.000057964029628
1.000057353998913
1.0000567502553486
1.000056142282611