# vtk DataFile Version 2.0
2D-ADE data file 
ASCII
DATASET RECTILINEAR_GRID
DIMENSIONS 128 128 1 
X_COORDINATES 128 int
0 1 2 3 4 5 6 7 8 9 10 11 12 13 14 15 16 17 18 19 20 21 22 23 24 25 26 27 28 29 30 31 32 33 34 35 36 37 38 39 40 41 42 43 44 45 46 47 48 49 50 51 52 53 54 55 56 57 58 59 60 61 62 63 64 65 66 67 68 69 70 71 72 73 74 75 76 77 78 79 80 81 82 83 84 85 86 87 88 89 90 91 92 93 94 95 96 97 98 99 100 101 102 103 104 105 106 107 108 109 110 111 112 113 114 115 116 117 118 119 120 121 122 123 124 125 126 127 
Y_COORDINATES 128 int
0 1 2 3 4 5 6 7 8 9 10 11 12 13 14 15 16 17 18 19 20 21 22 23 24 25 26 27 28 29 30 31 32 33 34 35 36 37 38 39 40 41 42 43 44 45 46 47 48 49 50 51 52 53 54 55 56 57 58 59 60 61 62 63 64 65 66 67 68 69 70 71 72 73 74 75 76 77 78 79 80 81 82 83 84 85 86 87 88 89 90 91 92 93 94 95 96 97 98 99 100 101 102 103 104 105 106 107 108 109 110 111 112 113 114 115 116 117 118 119 120 121 122 123 124 125 126 127 
Z_COORDINATES 1 int
0
POINT_DATA 16384
SCALARS density double
LOOKUP_TABLE default
0
0
0
0
0
0
0
0
0
0
0
0
0
0
0
0
0
0
0
0
0
0
0
0
0
0
0
0
0
0
0
0
0
0
0
0
0
0
0
0
0
0
0
0
0
0
0
0
0
0
0
0
0
0
0
0
0
0
0
0
0
0
0
0
0
0
0
0
0
0
0
0
0
0
0
0
0
0
0
0
0
0
0
0
0
0
0
0
0
0
0
0
0
0
0
0
0
0
0
0
0
0
0
0
0
0
0
0
0
0
0
0
0
0
0
0
0
0
0
0
0
0
0
0
0
0
0
0
0
0.9996894551872981
0.999689485573296
0.9996893796837631
0.9996891012574582
0.9996886542434685
0.9996880733958229
0.9996873908791015
0.999686633648726
0.9996858253956713
0.999684987221796
0.9996841374446485
0.9996832918429249
0.9996824640041352
0.9996816656209216
0.9996809067259665
0.9996801959015137
0.9996795404649009
0.9996789466302858
0.9996784196491364
0.9996779639330454
0.9996775831613005
0.9996772803751743
0.999677058060582
0.9996769182205495
0.9996768624386756
0.9996768919346153
0.9996770076124392
0.9996772101026231
0.9996774997983041
0.9996778768863794
0.9996783413739373
0.99967889311047
0.9996795318062609
0.9996802570473083
0.9996810683071153
0.9996819649556387
0.9996829462656812
0.9996840114169828
0.9996851594982455
0.9996863895073289
0.9996877003498201
0.9996890908361881
0.9996905596777094
0.999692105481358
0.9996937267438267
0.9996954218448632
0.9996971890400761
0.9996990264533788
0.9997009320692184
0.9997029037247543
0.9997049391021164
0.9997070357209029
0.9997091909310467
0.9997114019061951
0.9997136656377241
0.9997159789295313
0.9997183383937166
0.9997207404472799
0.9997231813099533
0.999725657003262
0.9997281633509373
0.9997306959807595
0.9997332503279343
0.9997358216400647
0.9997384049838066
0.9997409952532516
0.9997435871800912
0.9997461753455947
0.9997487541944234
0.9997513180502778
0.9997538611333814
0.9997563775797581
0.999758861462271
0.9997613068133541
0.9997637076493546
0.999766057996392
0.9997683519176129
0.9997705835417037
0.9997727470925113
0.9997748369195996
0.9997768475295594
0.9997787736178643
0.9997806101010714
0.999782352149139
0.999783995217635
0.9997855350795997
0.9997869678568402
0.9997882900504056
0.9997894985700398
0.9997905907623783
0.9997915644377051
0.9997924178950713
0.9997931499456361
0.9997937599340851
0.9997942477580479
0.9997946138854414
0.9997948593697462
0.9997949858632368
0.9997949956282752
0.9997948915468075
0.9997946771283
0.9997943565163979
0.9997939344946912
0.9997934164920412
0.9997928085880311
0.9997921175191943
0.9997913506867886
0.9997905161669934
0.9997896227245314
0.9997886798308236
0.9997876976878673
0.9997866872590399
0.9997856603080918
0.9997846294480262
0.9997836081992861
0.9997826110545678
0.9997816535446751
0.9997807523314467
0.9997799252798036
0.9997791913773203
0.9997785701130684
0.9997780817021951
0.9997777473710097
0.9997775852882882
0.999777572676963
0.9997776519142932
0
0
0.9996894067118423
0.9996894420650878
0.9996893370327755
0.9996890782043472
0.9996886862714024
0.9996881780893593
0.9996875766944665
0.9996869048207346
0.999686183713063
0.9996854321463733
0.9996846668094447
0.9996839024189133
0.9996831518660917
0.9996824263745829
0.9996817356839084
0.9996810882162642
0.9996804912267638
0.9996799509384016
0.9996794726635726
0.9996790609125289
0.999678719489838
0.9996784515800627
0.9996782598237268
0.9996781463845771
0.99967811300896
0.9996781610781299
0.9996782916541317
0.999678505519899
0.9996788032140763
0.9996791850610762
0.9996796511967767
0.9996802015902763
0.9996808360620364
0.9996815542987649
0.9996823558653082
0.9996832402138625
0.9996842066907267
0.9996852545408723
0.9996863829105257
0.999687590848001
0.9996888773029684
0.999690241124364
0.9996916810571139
0.9996931957378614
0.9996947836898561
0.9996964433171781
0.9996981728984504
0.9996999705801966
0.9997018343699914
0.9997037621295519
0.9997057515679069
0.9997078002347883
0.999709905514374
0.9997120646195131
0.9997142745865639
0.999716532270965
0.9997188343436559
0.99972117728847
0.9997235574005969
0.9997259707862274
0.999728413363475
0.9997308808646619
0.9997333688400578
0.9997358726631369
0.9997383875374296
0.9997409085050067
0.9997434304566575
0.9997459481437725
0.9997484561919658
0.9997509491164243
0.9997534213389815
0.9997558672068821
0.9997582810131971
0.9997606570188186
0.9997629894759702
0.999765272653117
0.9997675008611827
0.9997696684809234
0.9997717699913237
0.9997737999988447
0.9997757532673582
0.9997776247485566
0.9997794096126632
0.9997811032792078
0.9997827014476766
0.9997842001277897
0.9997855956692124
0.9997868847904591
0.9997880646067959
0.9997891326569255
0.9997900869282818
0.999790925880748
0.9997916484686704
0.9997922541610222
0.9997927429596593
0.999793115415582
0.9997933726432227
0.9997935163327563
0.9997935487605493
0.9997934727978502
0.9997932919179406
0.9997930102019724
0.9997926323438386
0.9997921636544306
0.9997916100657713
0.9997909781355092
0.9997902750523969
0.9997895086433664
0.9997886873829033
0.9997878204053714
0.9997869175209739
0.9997859892357974
0.9997850467760118
0.9997841021151516
0.9997831680040505
0.9997822580006727
0.9997813864929317
0.9997805686702305
0.9997798204488426
0.9997791583240071
0.9997785992908523
0.9997781594446243
0.9997778519773819
0.9997776817422853
0.9997776481802293
0.9997777240875262
0
0
0.9996894980648587
0.9996895380145087
0.9996894345592906
0.999689191339928
0.9996888333757242
0.9996883731275221
0.9996878301998435
0.9996872235751624
0.9996865713563277
0.9996858900605904
0.9996851947908671
0.9996844990647276
0.99968381487796
0.999683152810637
0.999682522153644
0.9996819310248427
0.9996813864845961
0.9996808946455928
0.9996804607746426
0.999680089385495
0.999679784323077
0.999679548839618
0.9996793856630432
0.9996792970582212
0.9996792848815376
0.9996793506293868
0.99967949548101
0.9996797203361971
0.9996800258482154
0.9996804124524205
0.9996808803908448
0.9996814297331591
0.9996820603942601
0.9996827721488255
0.9996835646430459
0.9996844374038487
0.9996853898457818
0.9996864212758432
0.99968753089641
0.9996887178065185
0.9996899810016333
0.9996913193721411
0.9996927317006921
0.9996942166586028
0.9996957728014415
0.9996973985639925
0.9996990922547117
0.9997008520498559
0.9997026759874007
0.999704561960909
0.9997065077134641
0.9997085108318238
0.9997105687409003
0.9997126786987066
0.9997148377918853
0.9997170429319395
0.9997192908522746
0.9997215781061664
0.999723901065754
0.9997262559221606
0.99972863868683
0.9997310451941657
0.999733471105555
0.9997359119148402
0.9997383629553032
0.9997408194082095
0.9997432763129565
0.9997457285788436
0.9997481709984923
0.9997505982629008
0.999753004978135
0.9997553856836152
0.9997577348719626
0.9997600470103338
0.9997623165631835
0.9997645380163378
0.9997667059022953
0.9997688148266003
0.9997708594951769
0.9997728347424343
0.9997747355600085
0.999776557125923
0.99977829483401
0.999779944323357
0.99978150150761
0.9997829626038809
0.9997843241610939
0.999785583087517
0.9997867366773205
0.99978778263593
0.9997887191040314
0.9997895446800293
0.9997902584408582
0.9997908599609808
0.9997913493295404
0.999791727165556
0.9997919946311986
0.999792153443108
0.9997922058818763
0.9997921547997497
0.9997920036267596
0.9997917563754393
0.9997914176444378
0.9997909926212808
0.9997904870846918
0.9997899074068033
0.9997892605557394
0.9997885540989331
0.9997877962076435
0.9997869956629007
0.9997861618630826
0.9997853048329471
0.9997844352338399
0.9997835643728321
0.999782704207147
0.999781867337395
0.9997810669945748
0.999780316985163
0.9997796315616577
0.9997790250633047
0.9997785118202593
0.9997781052457148
0.9997778168343461
0.9997776496687378
0.9997776153610037
0.9997777088725295
0
0
0.9996897678215807
0.9996897885486313
0.9996896698864298
0.9996894269780844
0.9996890823674323
0.9996886499327833
0.999688146228262
0.9996875865723694
0.9996869864268819
0.9996863603500691
0.9996857217725194
0.9996850828718928
0.9996844546346475
0.9996838468824052
0.9996832683324692
0.999682726676745
0.9996822286688937
0.9996817802089112
0.9996813864243874
0.999681051747487
0.9996807799866753
0.9996805743927561
0.9996804377191026
0.9996803722763307
0.9996803799815517
0.9996804624025663
0.9996806207972074
0.9996808561482325
0.9996811691939835
0.9996815604551974
0.9996820302581712
0.9996825787546275
0.9996832059384743
0.9996839116597712
0.9996846956360635
0.9996855574613857
0.9996864966130653
0.9996875124566069
0.9996886042487767
0.999689771139135
0.9996910121701393
0.9996923262760419
0.9996937122806856
0.9996951688944209
0.9996966947102349
0.9996982881992967
0.999699947706016
0.999701671442795
0.9997034574845732
0.999705303763336
0.9997072080626774
0.9997091680125829
0.999711181084518
0.9997132445869732
0.999715355661559
0.9997175112797799
0.999719708240582
0.9997219431687908
0.9997242125145291
0.9997265125537157
0.9997288393897248
0.9997311889563004
0.9997335570217845
0.9997359391947386
0.9997383309310092
0.9997407275422796
0.9997431242061617
0.9997455159778303
0.999747897803234
0.9997502645338656
0.9997526109430913
0.9997549317439967
0.9997572216087222
0.9997594751892068
0.9997616871392881
0.9997638521380462
0.9997659649143057
0.9997680202721463
0.9997700131173193
0.9997719384843767
0.9997737915643948
0.9997755677330699
0.9997772625790429
0.9997788719322207
0.9997803918919289
0.9997818188546607
0.9997831495412522
0.9997843810232458
0.9997855107482848
0.9997865365643136
0.9997874567424502
0.9997882699983269
0.9997889755118085
0.9997895729449195
0.9997900624579427
0.9997904447235776
0.9997907209391778
0.9997908928370254
0.9997909626927374
0.9997909333318342
0.999790808134646
0.9997905910396635
0.9997902865455894
0.9997898997122615
0.9997894361607671
0.9997889020729599
0.9997883041907039
0.9997876498150127
0.9997869468053153
0.9997862035788236
0.9997854291098747
0.9997846329283955
0.9997838251164108
0.9997830163009411
0.999782217641585
0.9997814408010892
0.9997806978893936
0.9997800013686181
0.9997793639761221
0.999778798455025
0.9997783171818856
0.9997779311435276
0.9997776511581148
0.999777484623862
0.9997774486644792
0.999777551683183
0
0
0.9996902077144435
0.9996901732315776
0.9996900205273005
0.9996897636612978
0.9996894182263422
0.9996889980511621
0.9996885171793449
0.9996879888512628
0.9996874263346377
0.9996868421828916
0.9996862481782485
0.9996856552063325
0.9996850732096372
0.9996845111702628
0.9996839771460384
0.9996834783192671
0.9996830210534133
0.9996826109543354
0.9996822529335375
0.9996819512702548
0.999681709670736
0.9996815313241361
0.9996814189544646
0.9996813748684922
0.999681400999408
0.9996814989464353
0.9996816700103865
0.9996819152254677
0.9996822353873872
0.9996826310781088
0.9996831026873296
0.9996836504310199
0.9996842743671149
0.9996849744086803
0.9996857503346354
0.999686601798341
0.9996875283341289
0.9996885293620602
0.9996896041909819
0.9996907520201549
0.9996919719395135
0.9996932629288149
0.9996946238557335
0.9996960534731419
0.9996975504156351
0.999699113195519
0.9997007401983261
0.9997024296780589
0.9997041797522247
0.9997059883968565
0.9997078534415752
0.9997097725648778
0.9997117432897124
0.9997137629795044
0.9997158288346999
0.9997179378899753
0.9997200870121815
0.9997222728991513
0.9997244920794415
0.9997267409131226
0.9997290155936764
0.9997313121511047
0.9997336264562973
0.9997359542267419
0.9997382910336154
0.9997406323103137
0.9997429733624467
0.9997453093793276
0.9997476354469681
0.9997499465625741
0.9997522376505362
0.9997545035798759
0.9997567391831188
0.9997589392765194
0.9997610986815803
0.9997632122477655
0.9997652748763143
0.9997672815450199
0.9997692273338628
0.9997711074513218
0.9997729172612387
0.9997746523100224
0.9997763083540561
0.9997778813870772
0.9997793676673717
0.9997807637445455
0.9997820664857221
0.9997832731009133
0.9997843811674266
0.9997853886530728
0.9997862939380504
0.9997870958353015
0.9997877936092433
0.9997883869927071
0.9997888762020437
0.9997892619502643
0.9997895454582441
0.9997897284639022
0.9997898132294651
0.9997898025467802
0.9997896997408542
0.9997895086716475
0.9997892337343542
0.9997888798582427
0.9997884525043177
0.9997879576618812
0.9997874018442289
0.9997867920834685
0.9997861359245317
0.9997854414180704
0.9997847171119693
0.9997839720406444
0.9997832157107365
0.9997824580800033
0.9997817095276276
0.9997809808125976
0.9997802830156812
0.9997796274284144
0.9997790254226813
0.9997784882590582
0.9997780269953046
0.9997776517880687
0.9997773730513212
0.9997772003279874
0.9997771477911905
0.9997772268946346
0
0
0.9996907832120531
0.9996906760960745
0.9996904746676798
0.9996901882017112
0.9996898281131178
0.9996894064012392
0.9996889347054703
0.9996884244598258
0.9996878868940895
0.9996873327988414
0.9996867724623243
0.9996862154980829
0.9996856707787515
0.9996851464149019
0.9996846497598456
0.9996841874280653
0.9996837653296571
0.9996833887134225
0.999683062213576
0.9996827898976766
0.999682575314258
0.9996824215390857
0.9996823312190167
0.9996823066131557
0.9996823496308667
0.9996824618666944
0.9996826446319911
0.9996828989834565
0.9996832257485176
0.999683625547832
0.9996840988148927
0.999684645813051
0.9996852666499585
0.9996859612897496
0.999686729562977
0.9996875711746115
0.9996884857101325
0.9996894726399937
0.9996905313225026
0.9996916610053763
0.9996928608260203
0.999694129810776
0.9996954668731737
0.999696870811435
0.9996983403052584
0.9996998739121155
0.9997014700630916
0.9997031270584936
0.9997048430632491
0.9997066161023124
0.9997084440561084
0.9997103246562081
0.9997122554812737
0.9997142339534528
0.9997162573352637
0.9997183227271331
0.9997204270656369
0.9997225671225805
0.9997247395049754
0.9997269406560322
0.9997291668572178
0.9997314142314875
0.9997336787477265
0.9997359562264941
0.9997382423470939
0.999740532656042
0.999742822576945
0.9997451074218253
0.9997473824038995
0.999749642651811
0.9997518832253042
0.999754099132309
0.9997562853474021
0.999758436831578
0.999760548553271
0.9997626155105245
0.9997646327542287
0.9997665954122833
0.9997684987145844
0.9997703380186571
0.9997721088358124
0.9997738068576261
0.9997754279825943
0.9997769683427418
0.999778424330037
0.9997797926223638
0.9997810702089089
0.9997822544147149
0.99978334292426
0.9997843338038228
0.9997852255225247
0.9997860169718126
0.9997867074833199
0.9997872968448912
0.9997877853147601
0.9997881736337068
0.9997884630352298
0.9997886552536189
0.9997887525300159
0.9997887576164033
0.9997886737776658
0.9997885047917032
0.999788254947794
0.9997879290432041
0.9997875323782495
0.9997870707497908
0.9997865504433092
0.999785978223423
0.9997853613228443
0.9997847074293329
0.9997840246701576
0.9997833215930476
0.9997826071428285
0.9997818906315913
0.9997811816987501
0.9997804902554299
0.9997798264190557
0.9997792004275597
0.9997786225265791
0.9997781027744291
0.9997776510329369
0.9997772767916662
0.9997769897590235
0.9997767997217769
0.9997767175474769
0.9997767522391472
0
0
0.9996914638082355
0.999691274873125
0.9996910132453547
0.9996906849625544
0.9996902988416774
0.9996898640687957
0.9996893901096905
0.9996888866091447
0.9996883630421862
0.9996878286508484
0.9996872923111966
0.9996867624115741
0.9996862467890886
0.999685752684117
0.9996852867207395
0.9996848549099362
0.9996844626675246
0.9996841148404746
0.9996838157390532
0.99968356917268
0.9996833784871253
0.9996832466017767
0.9996831760458268
0.9996831689929578
0.9996832272938507
0.999683352506464
0.9996835459237077
0.9996838085986581
0.9996841413671189
0.9996845448677608
0.9996850195597325
0.9996855657380259
0.9996861835465363
0.999686872989115
0.9996876339385776
0.9996884661439739
0.9996893692360918
0.9996903427314995
0.9996913860350958
0.9996924984414738
0.9996936791350693
0.9996949271893827
0.9996962415652556
0.9996976211084694
0.9996990645466632
0.9997005704858133
0.9997021374062801
0.9997037636586547
0.9997054474594066
0.9997071868865633
0.9997089798754139
0.9997108242144659
0.9997127175416491
0.9997146573409753
0.9997166409396585
0.9997186655058871
0.9997207280472604
0.999722825410057
0.9997249542793545
0.9997271111801508
0.9997292924795033
0.9997314943898192
0.9997337129733114
0.9997359441477209
0.9997381836933291
0.9997404272613276
0.9997426703835552
0.9997449084836505
0.999747136889608
0.9997493508477627
0.9997515455381684
0.9997537160913588
0.9997558576064451
0.9997579651704966
0.9997600338791369
0.9997620588582622
0.9997640352868007
0.9997659584203739
0.9997678236157578
0.999769626355972
0.9997713622758756
0.9997730271880652
0.9997746171089392
0.9997761282846969
0.9997775572171346
0.9997789006889823
0.9997801557886483
0.9997813199341052
0.9997823908957992
0.9997833668183155
0.9997842462407025
0.9997850281152111
0.9997857118243756
0.9997862971962178
0.9997867845175549
0.9997871745452196
0.9997874685152224
0.9997876681497117
0.9997877756618154
0.9997877937582567
0.9997877256398804
0.9997875750000156
0.9997873460208433
0.9997870433677063
0.9997866721815237
0.9997862380692156
0.9997857470922351
0.9997852057529735
0.9997846209789697
0.9997840001044443
0.9997833508487903
0.999782681290909
0.9997819998382363
0.9997813151890939
0.9997806362877398
0.9997799722673835
0.9997793323782475
0.9997787259010599
0.9997781620677245
0.9997776499477756
0.999777198411915
0.9997768161202074
0.9997765116221434
0.9997762933740387
0.9997761703003845
0.9997761487315895
0
0
0.9996922240701833
0.9996919478471189
0.9996916181571498
0.9996912393723749
0.9996908177845166
0.9996903602443352
0.999689874362699
0.9996893680071437
0.999688849072323
0.9996883253727811
0.999687804486651
0.999687293664129
0.9996867997490805
0.999686329123867
0.9996858876813487
0.9996854808152195
0.9996851134229494
0.9996847899192609
0.9996845142569438
0.999684289952308
0.999684120113044
0.99968400746742
0.9996839543934795
0.9996839629476957
0.9996840348922571
0.9996841717208695
0.999684374682571
0.9996846448036615
0.9996849829074256
0.999685389631873
0.9996858654452805
0.9996864106598284
0.9996870254431713
0.9996877098282664
0.9996884637213372
0.9996892869083056
0.9996901790595896
0.9996911397336009
0.9996921683788559
0.9996932643350159
0.9996944268327953
0.9996956549930369
0.9996969478248902
0.9996983042233971
0.9996997229664175
0.9997012027111868
0.9997027419904457
0.9997043392084249
0.9997059926366229
0.9997077004096505
0.9997094605210949
0.9997112708196478
0.999713129005468
0.9997150326270047
0.9997169790782598
0.9997189655966986
0.9997209892617955
0.9997230469944022
0.9997251355569327
0.9997272515545362
0.9997293914372519
0.9997315515032914
0.9997337279034513
0.999735916646775
0.999738113607457
0.9997403145330895
0.9997425150542365
0.9997447106953998
0.9997468968873592
0.9997490689809134
0.999751222261988
0.9997533519681086
0.9997554533061807
0.9997575214715377
0.9997595516681839
0.9997615391301453
0.9997634791438428
0.999765367071361
0.9997671983744966
0.9997689686394315
0.999770673601901
0.9997723091726506
0.9997738714630579
0.9997753568106732
0.9997767618045478
0.999778083310093
0.9997793184933286
0.9997804648442594
0.9997815201992502
0.99978248276213
0.9997833511239285
0.9997841242809794
0.9997848016513285
0.9997853830892003
0.9997858688975075
0.9997862598381836
0.9997865571403751
0.999786762506306
0.9997868781149009
0.999786906623019
0.9997868511644273
0.9997867153463863
0.9997865032440084
0.9997862193922641
0.999785868775783
0.9997854568162872
0.9997849893577324
0.9997844726488898
0.9997839133232785
0.9997833183759193
0.9997826951365774
0.9997820512387281
0.9997813945834597
0.9997807332965419
0.9997800756780334
0.9997794301443164
0.9997788051617722
0.9997782091665152
0.9997776504863523
0.9997771372713706
0.999776677440934
0.9997762786736513
0.9997759483808826
0.9997756934042156
0.9997755207784625
0.9997754353528773
0
0
0.9996930415989871
0.9996926748000855
0.9996922721139596
0.9996918365655783
0.9996913721986361
0.9996908841748002
0.9996903783949365
0.9996898611230769
0.9996893388391899
0.9996888180517576
0.9996883051567154
0.9996878063441471
0.9996873275151236
0.9996868742265512
0.9996864516549652
0.9996860645762371
0.9996857173589208
0.9996854139684049
0.9996851579782278
0.9996849525867348
0.9996848006370843
0.9996847046394536
0.9996846667939782
0.9996846890139135
0.9996847729480866
0.9996849200025049
0.9996851313604924
0.9996854080014403
0.9996857507177533
0.9996861601302077
0.9996866367014124
0.999687180747676
0.9996877924490369
0.999688471857798
0.9996892189053681
0.9996900334077661
0.9996909150696252
0.9996918634870479
0.9996928781491727
0.9996939584387993
0.9996951036319435
0.999696312896666
0.9996975852910492
0.9996989197606595
0.9997003151353825
0.9997017701259475
0.9997032833200445
0.9997048531783327
0.9997064780302571
0.9997081560699544
0.9997098853521746
0.9997116637884872
0.999713489143703
0.9997153590327754
0.9997172709181057
0.9997192221075136
0.9997212097527995
0.9997232308491404
0.999725282235261
0.9997273605945907
0.9997294624573625
0.9997315842038377
0.9997337220686184
0.9997358721462037
0.9997380303977494
0.9997401926591656
0.9997423546505032
0.9997445119867313
0.999746660189853
0.9997487947024194
0.9997509109023883
0.9997530041193401
0.9997550696519838
0.9997571027869318
0.9997590988186508
0.999761053070528
0.9997629609169455
0.999764817806252
0.9997666192845117
0.9997683610198784
0.9997700388274561
0.9997716486944546
0.9997731868055001
0.9997746495678608
0.9997760336364535
0.9997773359383658
0.9997785536967572
0.9997796844538623
0.9997807260929715
0.9997816768591049
0.9997825353782794
0.9997833006750949
0.9997839721885656
0.9997845497859417
0.9997850337744939
0.9997854249110264
0.9997857244091435
0.9997859339440562
0.9997860556550159
0.9997860921451865
0.9997860464790759
0.9997859221773697
0.9997857232093078
0.9997854539824423
0.9997851193299161
0.9997847244950518
0.9997842751133381
0.9997837771914926
0.9997832370835812
0.9997826614636953
0.9997820572949127
0.9997814317937678
0.9997807923899444
0.9997801466803229
0.9997795023763786
0.9997788672441158
0.9997782490388807
0.9997776554352584
0.9997770939531798
0.9997765718924015
0.9997760962631261
0.9997756737104082
0.9997753105150406
0.9997750122424447
0.9997747839787047
0.9997746294285692
0
0
0.9996938963967557
0.9996934378150795
0.9996929592302879
0.9996924624549235
0.9996919498952814
0.9996914253291346
0.9996908931515496
0.9996903582751125
0.999689825908236
0.9996893013766296
0.9996887899993415
0.9996882969864486
0.9996878273578196
0.9996873858860746
0.9996869770548523
0.999686605033057
0.9996862736615888
0.9996859864499623
0.9996857465802217
0.9996855569167166
0.9996854200196007
0.9996853381610337
0.9996853133426675
0.9996853473139413
0.999685441590169
0.9996855974702934
0.9996858160535856
0.9996860982553969
0.9996864448214375
0.9996868563408208
0.9996873332574783
0.9996878758802573
0.9996884843913962
0.999689158853725
0.9996898992163352
0.9996907053191018
0.9996915768958142
0.9996925135763219
0.9996935148874738
0.9996945802532385
0.9996957089938262
0.9996969003241736
0.999698153351631
0.9996994670732087
0.9997008403722238
0.9997022720147044
0.9997037606453893
0.999705304783679
0.9997069028193855
0.9997085530086148
0.9997102534696501
0.9997120021791475
0.9997137969685296
0.9997156355208737
0.9997175153681823
0.9997194338893237
0.9997213883085412
0.999723375694797
0.9997253929618594
0.9997274368693769
0.9997295040248654
0.9997315908868138
0.9997336937688526
0.9997358088451572
0.9997379321570357
0.9997400596208429
0.9997421870371686
0.9997443101014094
0.999746424415667
0.9997485255020426
0.999750608817266
0.9997526697686847
0.9997547037315406
0.9997567060675174
0.9997586721444697
0.9997605973572693
0.9997624771496687
0.9997643070370681
0.999766082630065
0.9997677996586386
0.9997694539968225
0.9997710416876845
0.9997725589684472
0.9997740022955421
0.9997753683694224
0.99977665415889
0.9997778569247847
0.9997789742427489
0.9997800040249445
0.999780944540423
0.9997817944340457
0.9997825527436601
0.999783218915461
0.9997837928172586
0.999784274749624
0.9997846654546515
0.9997849661223632
0.9997851783945172
0.9997853043658943
0.9997853465828548
0.9997853080392792
0.9997851921696999
0.9997850028397691
0.9997847443338657
0.9997844213399822
0.999784038931663
0.9997836025470941
0.999783117965022
0.9997825912775158
0.9997820288591238
0.9997814373323288
0.999780823528663
0.9997801944451645
0.9997795571956911
0.9997789189571491
0.9997782869098379
0.9997776681723057
0.9997770697334204
0.9997764983805368
0.9997759606277586
0.999775462643405
0.9997750101390297
0.9997746083012784
0.9997742616436214
0.9997739736884041
0.9997737470554154
0
0
0.999694770992091
0.9996942208186346
0.9996936648276332
0.9996931038902129
0.9996925392414954
0.9996919734627676
0.9996914097195092
0.9996908517708857
0.9996903036966278
0.9996897697720522
0.9996892543409385
0.9996887617148961
0.9996882960959074
0.9996878615178599
0.9996874618029631
0.9996871005327442
0.9996867810299227
0.999686506349791
0.9996862792787679
0.9996861023387462
0.9996859777952682
0.9996859076687711
0.999685893747442
0.999685937601288
0.9996860405963541
0.9996862039090035
0.9996864285394804
0.9996867153248724
0.9996870649508821
0.9996874779626673
0.9996879547742715
0.999688495677001
0.9996891008463453
0.999689770347847
0.9996905041415712
0.9996913020856039
0.9996921639382724
0.999693089359517
0.99969407791114
0.9996951290563594
0.9996962421584161
0.9996974164786456
0.9996986511737909
0.9996999452929539
0.9997012977739721
0.9997027074396136
0.9997041729933809
0.9997056930153144
0.999707265957593
0.9997088901403048
0.9997105637472115
0.9997122848218477
0.9997140512638049
0.9997158608255267
0.9997177111094634
0.9997195995659117
0.9997215234913935
0.9997234800278779
0.99972546616272
0.999727478729592
0.9997295144102957
0.9997315697377049
0.9997336410997354
0.9997357247445661
0.9997378167870096
0.9997399132162302
0.9997420099047052
0.9997441026185924
0.9997461870293995
0.9997482587270794
0.9997503132344365
0.9997523460229285
0.9997543525297417
0.999756328176169
0.9997582683871639
0.9997601686120472
0.9997620243462254
0.999763831153847
0.9997655846912459
0.9997672807310378
0.9997689151867194
0.9997704841375789
0.9997719838537643
0.9997734108212764
0.9997747617667264
0.9997760336815958
0.9997772238458412
0.9997783298505547
0.999779349619542
0.9997802814295131
0.9997811239287713
0.999781876154095
0.9997825375457327
0.9997831079602163
0.9997835876809553
0.9997839774263335
0.9997842783553269
0.9997844920703813
0.999784620617624
0.9997846664841703
0.9997846325926466
0.9997845222927038
0.999784339349677
0.9997840879301699
0.999783772584718
0.9997833982272879
0.9997829701117471
0.9997824938049954
0.9997819751568368
0.9997814202661781
0.9997808354435613
0.9997802271695793
0.9997796020491129
0.9997789667608079
0.9997783280019842
0.9997776924290361
0.9997770665931819
0.9997764568725319
0.999775869399726
0.9997753099834542
0.9997747840266678
0.9997742964344016
0.9997738514523908
0.9997734526544658
0.9997731024249459
0.9997728024838567
0
0
0.9996956501421735
0.999695009441946
0.9996943755752152
0.9996937487375008
0.9996931292688611
0.9996925187753668
0.9996919194291463
0.9996913339916399
0.999690765565486
0.9996902174990908
0.9996896932579639
0.9996891963360186
0.99968873018102
0.9996882981370844
0.9996879034011724
0.9996875489923062
0.9996872377306568
0.9996869722255616
0.9996867548701354
0.9996865878414868
0.999686473104757
0.9996864124203624
0.9996864073529872
0.9996864592820602
0.9996865694126053
0.9996867387864654
0.9996869682930309
0.9996872586796706
0.9996876105611727
0.9996880244285231
0.9996885006564482
0.9996890395101348
0.9996896411506377
0.9996903056394321
0.9996910329416803
0.9996918229286968
0.9996926753792185
0.9996935899799738
0.9996945663251917
0.9996956039155338
0.9996967021561275
0.9996978603541649
0.9996990777157703
0.9997003533425899
0.999701686227822
0.9997030752521325
0.9997045191791842
0.9997060166512188
0.999707566184427
0.9997091661645382
0.9997108148423762
0.9997125103298001
0.999714250595791
0.9997160334630867
0.9997178566051452
0.9997197175438135
0.9997216136475049
0.9997235421302387
0.9997255000513655
0.9997274843162962
0.9997294916780889
0.9997315187401754
0.9997335619600932
0.9997356176544815
0.9997376820052094
0.9997397510668669
0.9997418207754868
0.9997438869586939
0.9997459453471514
0.9997479915874551
0.9997500212563423
0.9997520298763244
0.9997540129326012
0.9997559658913073
0.9997578842189544
0.999759763403048
0.9997615989737451
0.9997633865264749
0.999765121745362
0.9997668004273385
0.9997684185067652
0.9997699720803925
0.9997714574324816
0.9997728710598646
0.9997742096967642
0.9997754703391143
0.9997766502682052
0.9997777470733652
0.9997787586735263
0.9997796833373532
0.9997805197018234
0.9997812667889241
0.9997819240203932
0.999782491230178
0.9997829686745757
0.9997833570397552
0.9997836574466789
0.9997838714531327
0.9997840010529467
0.9997840486721389
0.9997840171621142
0.9997839097896645
0.9997837302239478
0.9997834825201924
0.9997831711003267
0.9997828007302654
0.9997823764940472
0.9997819037645118
0.9997813881706897
0.9997808355615382
0.9997802519661442
0.9997796435499751
0.9997790165673474
0.9997783773097294
0.999777732049955
0.9997770869822947
0.9997764481584483
0.9997758214194398
0.9997752123226172
0.9997746260635784
0.9997740673802287
0.9997735404808473
0.9997730488559899
0.999772595295327
0.9997721813347095
0.9997718080390007
0
0
0.9996965204693583
0.9996957908541043
0.9996950793982659
0.9996943858003927
0.999693709708864
0.9996930519627025
0.999692413913232