# vtk DataFile Version 2.0
2D-ADE data file 
ASCII
DATASET RECTILINEAR_GRID
DIMENSIONS 128 128 1 
X_COORDINATES 128 int
0 1 2 3 4 5 6 7 8 9 10 11 12 13 14 15 16 17 18 19 20 21 22 23 24 25 26 27 28 29 30 31 32 33 34 35 36 37 38 39 40 41 42 43 44 45 46 47 48 49 50 51 52 53 54 55 56 57 58 59 60 61 62 63 64 65 66 67 68 69 70 71 72 73 74 75 76 77 78 79 80 81 82 83 84 85 86 87 88 89 90 91 92 93 94 95 96 97 98 99 100 101 102 103 104 105 106 107 108 109 110 111 112 113 114 115 116 117 118 119 120 121 122 123 124 125 126 127 
Y_COORDINATES 128 int
0 1 2 3 4 5 6 7 8 9 10 11 12 13 14 15 16 17 18 19 20 21 22 23 24 25 26 27 28 29 30 31 32 33 34 35 36 37 38 39 40 41 42 43 44 45 46 47 48 49 50 51 52 53 54 55 56 57 58 59 60 61 62 63 64 65 66 67 68 69 70 71 72 73 74 75 76 77 78 79 80 81 82 83 84 85 86 87 88 89 90 91 92 93 94 95 96 97 98 99 100 101 102 103 104 105 106 107 108 109 110 111 112 113 114 115 116 117 118 119 120 121 122 123 124 125 126 127 
Z_COORDINATES 1 int
0
POINT_DATA 16384
SCALARS density double
LOOKUP_TABLE default
0
0
0
0
0
0
0
0
0
0
0
0
0
0
0
0
0
0
0
0
0
0
0
0
0
0
0
0
0
0
0
0
0
0
0
0
0
0
0
0
0
0
0
0
0
0
0
0
0
0
0
0
0
0
0
0
0
0
0
0
0
0
0
0
0
0
0
0
0
0
0
0
0
0
0
0
0
0
0
0
0
0
0
0
0
0
0
0
0
0
0
0
0
0
0
0
0
0
0
0
0
0
0
0
0
0
0
0
0
0
0
0
0
0
0
0
0
0
0
0
0
0
0
0
0
0
0
0
0
0.9996874114863477
0.9996874776841641
0.9996873877114097
0.999687085880853
0.9996865675919728
0.9996858710066459
0.9996850330188579
0.999684085516597
0.9996830570740959
0.9996819735642599
0.9996808577069513
0.9996797292442278
0.9996786052810125
0.9996775006014669
0.9996764279282576
0.9996753981642728
0.9996744206136848
0.9996735031798865
0.9996726525411797
0.9996718743072569
0.9996711731585157
0.999670552969933
0.9996700169210123
0.9996695675931984
0.9996692070559241
0.9996689369423402
0.9996687585156073
0.999668672726576
0.9996686802635423
0.9996687815947461
0.9996689770041813
0.9996692666212696
0.9996696504448833
0.9996701283621986
0.9996707001628019
0.9996713655484738
0.9996721241390372
0.9996729754746501
0.9996739190148967
0.9996749541350296
0.9996760801196876
0.9996772961544199
0.9996786013153214
0.9996799945570884
0.9996814746997844
0.9996830404146035
0.9996846902089151
0.9996864224108574
0.9996882351537502
0.9996901263605857
0.9996920937288541
0.9996941347159458
0.9996962465253822
0.9996984260941013
0.9997006700810316
0.9997029748571726
0.9997053364973951
0.9997077507741606
0.9997102131533564
0.9997127187924169
0.9997152625409085
0.9997178389437155
0.9997204422469705
0.9997230664068367
0.9997257051012393
0.9997283517446147
0.999730999505726
0.9997336413285599
0.999736269956304
0.999738877958356
0.9997414577603075
0.9997440016767871
0.9997465019470443
0.9997489507730879
0.9997513403601976
0.9997536629595571
0.999755910912755
0.9997580766978525
0.9997601529766943
0.9997621326431128
0.9997640088716594
0.9997657751664626
0.9997674254098201
0.9997689539101045
0.999770355448571
0.9997716253246478
0.9997727593993113
0.9997737541361468
0.9997746066397333
0.9997753146910016
0.9997758767792743
0.9997762921307082
0.9997765607329311
0.9997766833557111
0.9997766615675545
0.999776497748196
0.9997761950970128
0.9997757576374712
0.999775190217791
0.9997744985080829
0.9997736889943106
0.9997727689694962
0.9997717465226723
0.9997706305261572
0.9997694306218076
0.9997681572069471
0.9997668214207314
0.9997654351317168
0.9997640109273879
0.999762562106327
0.9997611026734615
0.9997596473384933
0.9997582115170865
0.999756811333992
0.9997554636224576
0.9997541859113125
0.9997529963860177
0.99975191384521
0.9997509575401742
0.9997501467231732
0.9997494994697513
0.9997490327163239
0.999748760996259
0.9997486882941219
0.9997487562564897
0.9997488806859289
0
0
0.9996873456502743
0.999687411830777
0.9996873120426721
0.9996870231784726
0.9996865630333968
0.9996859484063029
0.9996852049332439
0.9996843590296777
0.9996834360021913
0.9996824585979981
0.9996814472841817
0.9996804202763233
0.9996793936404883
0.9996783814337588
0.9996773958958817
0.9996764476342302
0.9996755457976836
0.9996746982380273
0.9996739116591806
0.9996731917533623
0.9996725433244483
0.9996719703992933
0.9996714763277648
0.9996710638723229
0.999670735287832
0.9996704923923787
0.9996703366296857
0.9996702691238069
0.999670290726601
0.9996704020585755
0.9996706035435368
0.9996708954375578
0.9996712778526585
0.9996717507756494
0.9996723140824934
0.9996729675485987
0.9996737108553686
0.9996745435933816
0.9996754652625154
0.9996764752693479
0.9996775729221451
0.9996787574237357
0.9996800278625697
0.9996813832022474
0.9996828222697968
0.9996843437429724
0.9996859461368443
0.9996876277899309
0.9996893868501414
0.999691221260762
0.9996931287467451
0.9996951068015234
0.999697152674592
0.9996992633600765
0.9997014355865125
0.9997036658080324
0.9997059501971844
0.9997082846395494
0.9997106647303655
0.9997130857733033
0.9997155427815743
0.9997180304814902
0.9997205433186266
0.9997230754666622
0.9997256208390235
0.9997281731033593
0.99973072569892
0.9997332718568325
0.9997358046232858
0.999738316885557
0.9997408014008464
0.9997432508277854
0.9997456577605215
0.999748014765187
0.9997503144185889
0.9997525493488646
0.9997547122778843
0.9997567960650782
0.999758793752423
0.999760698610212
0.9997625041832975
0.9997642043373982
0.9997657933051229
0.9997672657312885
0.9997686167171717
0.9997698418632679
0.9997709373102119
0.9997718997774587
0.9997727265994046
0.9997734157586053
0.9997739659158239
0.9997743764366377
0.9997746474144275
0.9997747796895629
0.9997747748647192
0.9997746353162558
0.9997743642017063
0.9997739654634445
0.9997734438287135
0.9997728048062053
0.9997720546795253
0.9997712004978554
0.9997702500642695
0.9997692119221347
0.9997680953401366
0.999766910296418
0.9997656674623877
0.9997643781866381
0.999763054479353
0.9997617089973442
0.9997603550295873
0.9997590064824544
0.9997576778628078
0.9997563842552067
0.9997551412892804
0.9997539650885284
0.9997528721810186
0.9997518793140454
0.9997510031733186
0.9997502599813658
0.9997496649284655
0.9997492299800876
0.9997489605721396
0.9997488508411206
0.9997488792871815
0.9997490030511405
0
0
0.9996874359507061
0.9996875120291328
0.9996874120519502
0.9996871369654254
0.9996867129178745
0.9996861521701897
0.999685476606214
0.9996847081722164
0.9996838682741502
0.9996829767590631
0.9996820520024924
0.999681110605702
0.999680167402413
0.9996792355406604
0.9996783266066159
0.9996774507468886
0.9996766167981549
0.9996758324158898
0.9996751041976085
0.9996744377981055
0.999673838036196
0.9996733089928519
0.9996728541006326
0.9996724762247435
0.9996721777359535
0.9996719605758814
0.9996718263149635
0.9996717762036207
0.9996718112169526
0.9996719320934513
0.9996721393680489
0.9996724333999603
0.9996728143956183
0.999673282427125
0.9996738374465094
0.9996744792961695
0.9996752077157909
0.9996760223460869
0.9996769227296323
0.999677908309127
0.9996789784233436
0.9996801323010709
0.9996813690533054
0.9996826876639829
0.9996840869794942
0.9996855656972572
0.9996871223535898
0.9996887553111351
0.9996904627460802
0.9996922426354029
0.9996940927443855
0.9996960106146122
0.9996979935526824
0.9997000386198448
0.9997021426227701
0.9997043021056542
0.9997065133438552
0.9997087723392399
0.9997110748174207
0.999713416227037
0.9997157917412461
0.9997181962615379
0.9997206244240164
0.9997230706082274
0.9997255289486399
0.999727993348814
0.9997304574983291
0.9997329148924488
0.9997353588545508
0.9997377825612458
0.9997401790701571
0.9997425413502262
0.9997448623144586
0.9997471348549122
0.9997493518797869
0.9997515063523572
0.9997535913315434
0.9997556000138142
0.9997575257761621
0.9997593622197939
0.9997611032142402
0.9997627429414894
0.9997642759398208
0.9997656971469236
0.9997670019419677
0.99976818618621
0.9997692462618157
0.9997701791084991
0.9997709822576946
0.9997716538639124
0.9997721927330404
0.999772598347316
0.9997728708868118
0.9997730112472407
0.99977302105403
0.9997729026725657
0.999772659214675
0.9997722945413645
0.999771813261995
0.9997712207300308
0.9997705230356577
0.9997697269955166
0.9997688401399342
0.9997678706979712
0.9997668275807232
0.9997657203631851
0.9997645592650654
0.9997633551307276
0.9997621194083726
0.9997608641281791
0.9997596018787865
0.9997583457808572
0.9997571094557107
0.9997559069840288
0.9997547528476158
0.9997536618447586
0.999752648978298
0.9997517292615379
0.9997509173882053
0.9997502271543628
0.999749671136735
0.9997492593184731
0.9997489967847343
0.9997488781852111
0.9997489070478469
0.999749070116924
0
0
0.9996877386988385
0.9996878020106811
0.9996876874028485
0.9996874113767144
0.999687000839454
0.9996864710547035
0.9996858408728179
0.999685128019783
0.999684350768589
0.9996835265688432
0.9996826716943221
0.9996818010207434
0.9996809280524596
0.9996800649177956
0.999679222416088
0.9996784100959576
0.9996776363509199
0.9996769085170684
0.9996762329704539
0.9996756152219894
0.9996750600078796
0.9996745713744224
0.9996741527565002
0.9996738070497235
0.9996735366760446
0.999673343643092
0.9996732295972635
0.9996731958709558
0.9996732435240717
0.9996733733802167
0.9996735860577667
0.9996738819962236
0.9996742614780505
0.9996747246463966
0.9996752715189098
0.999675901998021
0.9996766158779097
0.9996774128485048
0.9996782924967351
0.9996792543053641
0.9996802976496172
0.9996814217919184
0.9996826258749485
0.9996839089133144
0.9996852697840439
0.9996867072161827
0.9996882197797029
0.9996898058739757
0.9996914637160332
0.999693191328844
0.9996949865298247
0.9996968469198
0.9996987698726354
0.9997007525257281
0.9997027917715762
0.9997048842506039
0.9997070263454403
0.9997092141768174
0.9997114436012681
0.9997137102107609
0.9997160093344458
0.9997183360426057
0.9997206851529635
0.9997230512394112
0.9997254286432793
0.9997278114871581
0.9997301936913617
0.9997325689930004
0.9997349309676964
0.9997372730538601
0.999739588579514
0.9997418707915199
0.9997441128871384
0.9997463080477234
0.9997484494744222
0.9997505304256196
0.9997525442559491
0.9997544844565517
0.9997563446963528
0.9997581188639997
0.999759801110182
0.9997613858899412
0.999762868004679
0.9997642426434346
0.9997655054231378
0.999766652427411
0.9997676802436318
0.999768585997852
0.9997693673873155
0.9997700227102125
0.9997705508924706
0.9997709515112784
0.9997712248152149
0.999771371740771
0.9997713939252233
0.9997712937157397
0.9997710741747812
0.9997707390817934
0.9997702929313429
0.9997697409278058
0.9997690889768519
0.9997683436739245
0.9997675122900219
0.9997666027550216
0.9997656236388792
0.9997645841308905
0.9997634940172483
0.999762363656891
0.9997612039555649
0.9997600263376245
0.999758842714723
0.9997576654495329
0.9997565073122185
0.9997553814264616
0.9997543012002875
0.9997532802248704
0.9997523321308512
0.9997514703947804
0.9997507081412541
0.9997500576725724
0.9997495298735957
0.9997491331643553
0.9997488749076245
0.9997487577243264
0.9997487976423615
0.9997489992184299
0
0
0.9996882599271456
0.9996882649359295
0.9996881126856864
0.9996878203603913
0.9996874079162761
0.99968689141282
0.9996862873894939
0.9996856114244447
0.9996848793109155
0.9996841061174685
0.9996833061031808
0.9996824925272779
0.9996816775619898
0.999680872244054
0.999680086499073
0.9996793291873941
0.9996786081646262
0.9996779303515922
0.9996773018099041
0.9996767278184976
0.9996762129484413
0.9996757611347864
0.9996753757443433
0.9996750596389454
0.999674815233661
0.9996746445499916
0.9996745492638716
0.9996745307487065
0.9996745901134266
0.9996747282358869
0.9996749457916686
0.9996752432786609
0.9996756210375135
0.9996760792683498
0.9996766180438544
0.9996772373191213
0.9996779369383924
0.9996787166390514
0.9996795760530247
0.9996805147059247
0.9996815320141023
0.9996826272799241
0.9996837996854456
0.9996850482847766
0.9996863719953164
0.9996877695881372
0.9996892396776935
0.9996907807111256
0.9996923909573308
0.9996940684960541
0.9996958112071842
0.9996976167604732
0.9996994826058768
0.9997014059647182
0.9997033838218603
0.9997054129190749
0.999707489749794
0.9997096105553992
0.9997117713232305
0.999713967786444
0.9997161954258847
0.9997184494740726
0.9997207249214444
0.999723016524917
0.999725318818885
0.9997276261286748
0.9997299325865336
0.9997322321501244
0.9997345186235684
0.9997367856809487
0.999739026892269
0.9997412357517196
0.9997434057082022
0.9997455301978996
0.9997476026787817
0.9997496166667919
0.9997515657735343
0.9997534437451625
0.9997552445022444
0.9997569621802445
0.9997585911703737
0.9997601261604033
0.9997615621751716
0.9997628946163607
0.9997641193012557
0.9997652325000697
0.9997662309715544
0.9997671119964928
0.9997678734088316
0.9997685136240867
0.9997690316648274
0.9997694271829344
0.9997697004785115
0.9997698525152222
0.9997698849320086
0.999769800051067
0.9997696008821286
0.9997692911230087
0.9997688751565794
0.9997683580442103
0.999767745515923
0.9997670439573685
0.9997662603939239
0.9997654024720454
0.9997644784381596
0.9997634971151718
0.9997624678767516
0.9997614006192643
0.9997603057311611
0.9997591940591968
0.9997580768707195
0.9997569658104871
0.9997558728495425
0.9997548102218669
0.9997537903466835
0.9997528257312712
0.9997519288453431
0.9997511119283314
0.9997503867905321
0.9997497645533149
0.9997492554901961
0.9997488682343784
0.9997486117969397
0.99974849386347
0.9997485302146081
0.9997487325254303
0
0
0.9996889633181106
0.9996888853769039
0.9996886767535292
0.9996883496596713
0.9996879190707686
0.999687399635374
0.9996868055669947
0.999686150584352
0.9996854482003246
0.9996847114376779
0.9996839527722063
0.9996831839059176
0.9996824156732481
0.9996816580003011
0.9996809198992006
0.9996802094815195
0.9996795339944174
0.9996788998702296
0.9996783127828033
0.9996777777071426
0.9996772989800101
0.9996768803598555
0.9996765250844215
0.9996762359254184
0.9996760152394573
0.9996758650151477
0.999675786915942
0.999675782318873
0.9996758523489937
0.9996759979098003
0.9996762197095665
0.9996765182839361
0.9996768940147657
0.9996773471455929
0.9996778777937706
0.9996784859596343
0.9996791715327804
0.9996799342958136
0.9996807739256589
0.9996816899927821
0.9996826819584312
0.9996837491702226
0.9996848908561998
0.999686106117671
0.9996873939209558
0.9996887530883388
0.9996901822883659
0.9996916800257528
0.9996932446310692
0.9996948742504326
0.9996965668353865
0.9996983201331862
0.9997001316776578
0.9997019987808473
0.9997039185256198
0.9997058877594083
0.9997079030892699
0.9997099608784236
0.999712057244426
0.9997141880591278
0.9997163489505588
0.9997185353068528
0.9997207422823378
0.9997229648058703
0.9997251975915193
0.9997274351516211
0.9997296718122906
0.9997319017313582
0.9997341189187776
0.9997363172594229
0.9997384905382668
0.9997406324678069
0.9997427367176854
0.9997447969463009
0.999746806834307
0.9997487601197422
0.9997506506346352
0.999752472342761
0.9997542193783655
0.9997558860854742
0.9997574670575613
0.9997589571771722
0.9997603516552356
0.9997616460696445
0.9997628364028336
0.9997639190779198
0.999764890993153
0.9997657495542541
0.9997664927044149
0.9997671189515822
0.9997676273928394
0.9997680177355699
0.9997682903152841
0.9997684461098691
0.9997684867502195
0.9997684145270971
0.999768232394272
0.9997679439678748
0.999767553522105
0.9997670659813106
0.9997664869086511
0.9997658224914221
0.999765079523297
0.9997642653835719
0.9997633880136506
0.9997624558907854
0.9997614779991905
0.9997604637983382
0.9997594231882763
0.9997583664713308
0.9997573043093719
0.9997562476753494
0.9997552077979225
0.9997541960961658
0.9997532241001563
0.9997523033531632
0.9997514453054475
0.9997506611820097
0.9997499618273985
0.9997493574895682
0.9997488579302892
0.9997484722239406
0.9997482100444973
0.999748081306606
0.9997480992271678
0.9997482747509209
0
0
0.9996898139627985
0.9996896391932552
0.9996893588998025
0.9996889814157423
0.9996885186881432
0.9996879824428658
0.9996873845303095
0.9996867367663229
0.9996860507202827
0.9996853376392169
0.9996846083280271
0.999683873004869
0.9996831412251838
0.9996824218209205
0.9996817228718216
0.9996810517051363
0.999680414915108
0.9996798183942776
0.9996792673733503
0.9996787664668648
0.9996783197214751
0.9996779306650454
0.9996776023548568
0.9996773374242384
0.9996771381265844
0.9996770063765487
0.9996769437878213
0.9996769517075785
0.9996770312472657
0.9996771833099538
0.9996774086140849
0.9996777077139279
0.9996780810166485
0.9996785287963565
0.999679051205092
0.9996796482811231
0.999680319954557
0.9996810660506414
0.9996818862907757
0.9996827802916021
0.9996837475622248
0.9996847874998976
0.9996858993842602
0.9996870823704365
0.9996883354810919
0.9996896575977502
0.9996910474514707
0.9996925036131742
0.9996940244837301
0.9996956082840716
0.9996972530454631
0.9996989566001673
0.9997007165726479
0.9997025303715286
0.9997043951824546
0.999706307962061
0.9997082654331869
0.9997102640815198
0.9997123001538084
0.999714369657799
0.9997164683640313
0.9997185918096062
0.9997207353040526
0.9997228939373741
0.9997250625903726
0.9997272359472877
0.9997294085108233
0.9997315746195465
0.9997337284677008
0.9997358641273543
0.9997379755728855
0.9997400567076766
0.9997421013929538
0.9997441034785969
0.9997460568357986
0.9997479553913413
0.9997497931633168
0.9997515642979992
0.9997532631076602
0.9997548841089718
0.9997564220617637
0.9997578720077308
0.9997592293088347
0.9997604896849759
0.9997616492506647
0.9997627045502623
0.9997636525915302
0.9997644908770719
0.9997652174334354
0.9997658308374899
0.9997663302398959
0.9997667153853387
0.9997669866294057
0.9997671449518515
0.9997671919662094
0.9997671299255749
0.9997669617246084
0.999766690897665
0.999766321613185
0.9997658586643333
0.9997653074560848
0.9997646739887981
0.9997639648385204
0.9997631871340635
0.9997623485310807
0.9997614571831207
0.9997605217097822
0.9997595511617533
0.9997585549826243
0.9997575429669803
0.9997565252142606
0.9997555120771721
0.9997545141035515
0.9997535419706962
0.999752606411846
0.9997517181296164
0.9997508876987066
0.9997501254633039
0.9997494414622456
0.9997488453195343
0.9997483463470263
0.9997479536166378
0.9997476764759272
0.9997475245925025
0.9997475097568964
0.9997476404991544
0
0
0.9996907819191484
0.9996905014248292
0.9996901382850545
0.9996896987837959
0.9996891919385335
0.9996886267912252
0.9996880131050501
0.9996873607400016
0.999686679476811
0.9996859789124385
0.9996852683183551
0.9996845565412682
0.9996838519170167
0.9996831622057458
0.9996824945590164
0.9996818555084025
0.9996812509698294
0.9996806862614022
0.9996801661309879
0.99967969479022
0.9996792759520127
0.9996789128701509
0.9996786083791295
0.9996783649334513
0.9996781846452049
0.9996780693196848
0.9996780204883151
0.999678039438932
0.9996781272429527
0.9996782847796628
0.9996785127573184
0.9996788117313855
0.9996791821197265
0.9996796242150979
0.9996801381948461
0.9996807241281772
0.9996813819809374
0.9996821116182909
0.9996829128052588
0.9996837852054923
0.9996847283782885
0.9996857417741903
0.9996868247292112
0.9996879764580096
0.9996891960460631
0.9996904824411639
0.9996918344442918
0.9996932507001681
0.9996947296875697
0.9996962697096808
0.9996978688845772
0.9996995251361018
0.9997012361852418
0.9997029995422403
0.9997048124995622
0.999706672125934
0.9997085752615766
0.9997105185148244
0.9997124982602545
0.9997145106384964
0.9997165515578333
0.9997186166977372
0.9997207015144369
0.9997228012486239
0.9997249109353794
0.999727025416377
0.9997291393544216
0.9997312472503329
0.9997333434621931
0.999735422226912
0.9997374776840977
0.9997395039021099
0.9997414949062507
0.9997434447089044
0.9997453473415259
0.9997471968882333
0.9997489875208507
0.9997507135350993
0.9997523693877384
0.9997539497343009
0.9997554494671829
0.9997568637536989
0.999758188073832
0.9997594182572592
0.9997605505193783
0.9997615814959033
0.9997625082757655
0.9997633284318922
0.9997640400496303
0.9997646417524262
0.9997651327245641
0.9997655127306302
0.9997657821315751
0.9997659418971027
0.9997659936143444
0.9997659394926162
0.9997657823643119
0.9997655256818132
0.9997651735105435
0.999764730518131
0.9997642019598775
0.9997635936605412
0.9997629119926786
0.9997621638515615
0.9997613566269031
0.9997604981713628
0.9997595967659771
0.9997586610823604
0.9997577001416375
0.9997567232696845
0.9997557400484681
0.9997547602629047
0.9997537938426152
0.9997528507973573
0.9997519411471679
0.9997510748483049
0.9997502617164528
0.9997495113448077
0.9997488330549629
0.9997482358669908
0.9997477285562651
0.9997473197595405
0.9997470182257406
0.9997468324527946
0.9997467726020938
0.99974684573739
0
0
0.9996918403201364
0.9996914480148752
0.9996909944121429
0.9996904841599942
0.999689923532207
0.9996893195612214
0.9996886800441369
0.9996880129944896
0.9996873265519872
0.9996866287875987
0.999685927568021
0.9996852304585234
0.9996845446366075
0.9996838768326294
0.9996832332912005
0.9996826197503508
0.9996820414369224
0.9996815030751639
0.9996810089042694
0.99968056270273
0.9996801678169938
0.9996798271930121
0.9996795434087328
0.9996793187068372
0.9996791550264744
0.9996790540337395
0.9996790171500443
0.9996790455784342
0.9996791403272677
0.9996793022314951
0.9996795319711311
0.9996798300872499
0.9996801969952307
0.9996806329956247
0.9996811382824541
0.9996817129493367
0.9996823569933073
0.9996830703167261
0.9996838527271944
0.9996847039358604
0.9996856235540614
0.9996866110886786
0.9996876659361777
0.9996887873756909
0.9996899745611396
0.9996912265127356
0.9996925421078774
0.999693920071767
0.999695358967778
0.9996968571878806
0.9996984129431776
0.9997000242548312
0.9997016889454573
0.9997034046312383
0.9997051687148505
0.9997069783794383
0.9997088305837303
0.9997107220585157
0.9997126493045757
0.9997146085922627
0.9997165959628191
0.9997186072315977
0.9997206379932699
0.9997226836291381
0.9997247393166321
0.9997268000410553
0.9997288606096372
0.9997309156679136
0.9997329597184479
0.9997349871418655
0.9997369922201779
0.999738969162296
0.9997409121316752
0.9997428152759193
0.999744672758241
0.9997464787905403
0.9997482276679481
0.9997499138045337
0.9997515317699788
0.9997530763268649
0.9997545424683307
0.9997559254557047
0.9997572208558488
0.9997584245777792
0.9997595329082936
0.9997605425461574
0.9997614506345872
0.9997622547915886
0.9997629531379167
0.9997635443222459
0.999764027543358
0.999764402568994
0.9997646697512401
0.9997648300381534
0.9997648849815899
0.9997648367410056
0.9997646880832894
0.999764442378478
0.9997641035914913
0.9997636762698212
0.9997631655273833
0.999762577024515
0.9997619169443761
0.9997611919657622
0.9997604092325821
0.9997595763199837
0.9997587011973236
0.9997577921878761
0.9997568579253895
0.9997559073072362
0.9997549494440805
0.9997539936057518
0.9997530491635638
0.9997521255288551
0.9997512320879474
0.9997503781349821
0.9997495728088286
0.9997488250340116
0.999748143480148
0.9997475365497076
0.999747012400639
0.999746578954749
0.9997462441507753
0.999746015407958
0.99974590087569
0.9997459064602612
0
0
0.9996929646233389
0.9996924571456071
0.9996919080479469
0.9996913204668393
0.9996906985905348
0.9996900477847356
0.9996893740511041
0.9996886837971111
0.9996879836595903
0.9996872803023706
0.9996865802956009
0.9996858900104623
0.9996852155364891
0.9996845626225618
0.9996839366345043
0.999683342530332
0.9996827848498511
0.9996822677158569
0.9996817948440294
0.9996813695599356
0.9996809948205191
0.9996806732388622
0.9996804071103775
0.9996801984398371
0.9996800489678999
0.9996799601969362
0.9996799334152071
0.9996799697194769
0.9996800700353903
0.9996802351358551
0.9996804656569491
0.9996807621116968
0.999681124901354
0.9996815543246073
0.9996820505844056
0.9996826137928624
0.9996832439740065
0.9996839410648221
0.9996847049144097
0.9996855352816929
0.9996864318315537
0.999687394129796
0.9996884216368546
0.9996895137006346
0.9996906695484278
0.9996918882782678
0.9996931688496942
0.9996945100742745
0.9996959106058741
0.9996973689310035
0.9996988833592517
0.9997004520141193
0.9997020728242826
0.999703743515573
0.9997054616037258
0.9997072243881638
0.9997090289468732
0.9997108721326254
0.9997127505706033
0.999714660657656
0.9997165985632492
0.9997185602323011
0.9997205413899632
0.9997225375484998
0.9997245440163148
0.9997265559092274
0.9997285681640342
0.9997305755544006
0.9997325727090869
0.9997345541325027
0.9997365142275462
0.9997384473206665
0.9997403476890581
0.9997422095898544
0.9997440272911892
0.999745795104917
0.9997475074208177
0.999749158742004
0.9997507437213209
0.9997522571983857
0.9997536942370223
0.9997550501626983
0.9997563205996763
0.9997575015074626
0.9997585892162527
0.99975958046094
0.9997604724133924
0.9997612627125662
0.9997619494921959
0.9997625314056487
0.9997630076477327
0.9997633779730958
0.9997636427110704
0.999763802776665
0.9997638596776429
0.9997638155174549
0.9997636729940788
0.9997634353945939
0.999763106585637
0.9997626909996559
0.9997621936171736
0.9997616199450476
0.9997609759909877
0.9997602682343476
0.9997595035934812
0.9997586893896658
0.999757833307863
0.9997569433542758
0.9997560278109054
0.9997550951870455
0.9997541541679082
0.9997532135602469
0.9997522822353124
0.9997513690696767
0.9997504828850958
0.9997496323879743
0.999748826112589
0.9997480723722416
0.999747379221856
0.9997467544348727
0.9997462055150943
0.9997457396289696
0.9997453637538027
0.9997450843404228
0.9997449077624003
0.9997448387394365
0
0
0.9996941329662677
0.9996935088697313
0.9996928610570117
0.999692191442802
0.9996915026843842
0.9996907986690411
0.999690083882023
0.9996893633306537
0.9996886422863661
0.9996879261366447
0.9996872202598835
0.9996865299198004
0.9996858601867977
0.9996852158787897
0.9996846015183505
0.9996840213057987
0.9996834791045309
0.9996829784372625
0.999682522490572
0.9996821141262157
0.9996817558968525
0.9996814500652779
0.9996811986253598
0.999681003324169
0.9996808656839539
0.9996807870238189
0.999680768480117
0.9996808110256614
0.9996809154870199
0.9996810825601627
0.9996813128239102
0.9996816067515459
0.9996819647201698
0.9996823870182168
0.9996828738507945
0.9996834253433032
0.9996840415430509
0.9996847224193347
0.9996854678617505
0.9996862776771963
0.999687151585381
0.9996880892132753
0.9996890900883594
0.9996901536310926
0.9996912791464809
0.999692465815153
0.9996937126838497
0.9996950186557134
0.9996963824803176
0.9996978027437948
0.9996992778590333
0.9997008060562791
0.9997023853741345
0.9997040136512785
0.9997056885189083
0.9997074073942156
0.9997091674749106
0.999710965735079
0.9997127989224082
0.9997146635570261
0.9997165559320076
0.9997184721157506
0.99972040795628
0.9997223590876423
0.9997243209384344
0.9997262887425907
0.9997282575524482
0.9997302222541651
0.9997321775854766
0.9997341181558085
0.9997360384686999
0.9997379329464784
0.9997397959571063
0.9997416218430613
0.9997434049521282
0.9997451396698949
0.9997468204537708
0.9997484418682607
0.999749998621259
0.9997514856010348
0.9997528979136395
0.9997542309203417
0.9997554802748005
0.9997566419595496
0.9997577123214761
0.9997586881058534
0.999759566488626
0.9997603451064926
0.9997610220845244
0.9997615960608824
0.9997620662084218
0.9997624322527908
0.9997626944868868
0.9997628537813327
0.9997629115909291
0.999762869956818
0.9997627315044096
0.9997624994368963
0.9997621775244944
0.9997617700893222
0.9997612819861463
0.9997607185789621
0.9997600857137197
0.9997593896871977
0.9997586372123755
0.9997578353803298
0.9997569916190028
0.9997561136488728
0.9997552094358615
0.9997542871414893
0.9997533550706763
0.9997524216173362
0.9997514952082764
0.9997505842457878
0.9997496970503749
0.9997488418048223
0.9997480265014052
0.9997472588949663
0.9997465464647106
0.9997458963747842
0.9997453154651452
0.9997448101858766
0.9997443865924904
0.9997440501827416
0.999743805958739
0.9997436575703974
0
0
0.9996953259307372
0.9996945850218656
0.9996938366501199
0.9996930818195107
0.9996923219878366
0.9996915597959897
0.9996907984715296
0.9996900417814734
0.9996892937845892
0.9996885587191598
0.9996878408716658
0.9996871444825395
0.9996864736707787
0.99968583237635
0.9996852243181729
0.9996846529661371
0.9996841215242005
0.9996836329236035
0.9996831898235407
0.9996827946182184
0.9996824494481578
0.9996821562150388
0.9996819165982946
0.999681732073121
0.9996816039285316
0.9996815332854156
0.9996815211135481
0.999681568247729
0.9996816754022397
0.9996818431839489
0.9996820721034285
0.9996823625845004
0.9996827149717038
0.9996831295361606
0.9996836064794113
0.9996841459357277
0.9996847479725478
0.9996854125895326
0.999686139715956
0.9996869292069164
0.999687780838122
0.9996886942997294
0.999689669189021
0.9996907050023859
0.9996918011264245
0.9996929568286212
0.9996941712474334
0.999695443382225
0.9996967720829267
0.9996981560398204
0.9996995937733688
0.9997010836244645
0.999702623745044
0.9997042120894225
0.9997058464063208
0.9997075242319173
0.9997092428839187
0.9997109994569529
0.9997127908193008
0.999714613611241
0.9997164642450291
0.9997183389067591
0.9997202335601243
0.999722143952292
0.9997240656218983
0.9997259939093281
0.9997279239692799
0.9997298507857139
0.9997317691891636
0.9997336738764465
0.9997355594327163
0.9997374203558234
0.9997392510828871
0.9997410460189669
0.9997427995676894
0.9997445061636454
0.9997461603063612
0.9997477565955837
0.9997492897676368
0.9997507547325187
0.9997521466114601
0.99975346077455
0.9997546928781224
0.999755838901467
0.9997568951825464
0.9997578584522485
0.9997587258668773
0.9997594950383991
0.9997601640621757
0.9997607315417261
0.9997611966102953
0.9997615589488207
0.9997618188001408
0.9997619769791033
0.9997620348785095
0.9997619944706254
0.9997618583043014
0.9997616294975196
0.9997613117255066
0.9997609092043259
0.9997604266701845
0.9997598693544342
0.9997592429546002
0.9997585536014579
0.9997578078225611
0.9997570125022772
0.9997561748387567
0.9997553022979244
0.9997544025649476
0.9997534834932998
0.9997525530519163
0.9997516192706805
0.999750690184979
0.9997497737797448
0.9997488779340056
0.9997480103670289
0.9997471785872712
0.9997463898442259
0.9997456510867364
0.9997449689170049
0.9997443495504968
0.9997437987653764
0.9997433218258422
0.9997429233659866
0.9997426073106309
0.9997423764729408
0
0
0.9996965261672792
0.9996956690799331
0.9996948193433897
0.9996939772658833
0.9996931433429872