# vtk DataFile Version 2.0
2D-ADE data file 
ASCII
DATASET RECTILINEAR_GRID
DIMENSIONS 128 128 1 
X_COORDINATES 128 int
0 1 2 3 4 5 6 7 8 9 10 11 12 13 14 15 16 17 18 19 20 21 22 23 24 25 26 27 28 29 30 31 32 33 34 35 36 37 38 39 40 41 42 43 44 45 46 47 48 49 50 51 52 53 54 55 56 57 58 59 60 61 62 63 64 65 66 67 68 69 70 71 72 73 74 75 76 77 78 79 80 81 82 83 84 85 86 87 88 89 90 91 92 93 94 95 96 97 98 99 100 101 102 103 104 105 106 107 108 109 110 111 112 113 114 115 116 117 118 119 120 121 122 123 124 125 126 127 
Y_COORDINATES 128 int
0 1 2 3 4 5 6 7 8 9 10 11 12 13 14 15 16 17 18 19 20 21 22 23 24 25 26 27 28 29 30 31 32 33 34 35 36 37 38 39 40 41 42 43 44 45 46 47 48 49 50 51 52 53 54 55 56 57 58 59 60 61 62 63 64 65 66 67 68 69 70 71 72 73 74 75 76 77 78 79 80 81 82 83 84 85 86 87 88 89 90 91 92 93 94 95 96 97 98 99 100 101 102 103 104 105 106 107 108 109 110 111 112 113 114 115 116 117 118 119 120 121 122 123 124 125 126 127 
Z_COORDINATES 1 int
0
POINT_DATA 16384
SCALARS density double
LOOKUP_TABLE default
0
0
0
0
0
0
0
0
0
0
0
0
0
0
0
0
0
0
0
0
0
0
0
0
0
0
0
0
0
0
0
0
0
0
0
0
0
0
0
0
0
0
0
0
0
0
0
0
0
0
0
0
0
0
0
0
0
0
0
0
0
0
0
0
0
0
0
0
0
0
0
0
0
0
0
0
0
0
0
0
0
0
0
0
0
0
0
0
0
0
0
0
0
0
0
0
0
0
0
0
0
0
0
0
0
0
0
0
0
0
0
0
0
0
0
0
0
0
0
0
0
0
0
0
0
0
0
0
0
1.0003118396709136
1.000289288598076
1.0002763258642775
1.0002765244285565
1.0002801319333159
1.0002849611124296
1.0002911345868037
1.0002983717885114
1.0003061665485633
1.0003141139601934
1.00032188619961
1.0003291863438852
1.000335752032797
1.0003413661588185
1.0003458599518125
1.0003491125813544
1.0003510495022503
1.0003516393725003
1.0003508895451598
1.0003488405141212
1.000345559747018
1.0003411353024791
1.0003356695937233
1.00032927360687
1.0003220618067554
1.0003141478771806
1.0003056413583828
1.0002966451708235
1.000287253956587
1.0002775531302621
1.0002676185099548
1.0002575163938396
1.0002473039549535
1.0002370298428676
1.0002267349015481
1.0002164529347586
1.0002062114711803
1.0001960324991956
1.000185933155144
1.0001759263585634
1.000166021393863
1.0001562244407958
1.000146539056831
1.0001369666140505
1.0001275066921902
1.000118157428538
1.000108915824904
1.000099778011895
1.000090739471263
1.0000817952179608
1.0000729399445407
1.0000641681314963
1.0000554741278798
1.0000468522069588
1.000038296601769
1.0000298015251792
1.0000213611786162
1.0000129697529476
1.0000046214243017
0.9999963103468996
0.9999880306443303
0.9999797764001555
0.9999715416483296
0.9999633203635954
0.9999551064518326
0.9999468937402122
0.9999386759669833
0.9999304467707333
0.9999221996790782
0.9999139280969139
0.9999056252946571
0.9998972843972939
0.9998888983755866
0.9998804600414246
0.9998719620500137
0.9998633969123321
0.999854757021945
0.9998460347007625
0.9998372222685366
0.9998283121407631
0.9998192969590812
0.9998101697573339
0.9998009241651866
0.9997915546498504
0.9997820567951746
0.9997724276165363
0.9997626659097029
0.9997527726324755
0.9997427513193136
0.9997326085311908
0.9997223543451028
0.9997120028892126
0.9997015729296502
0.9996910885123703
0.9996805796572479
0.9996700830909618
0.9996596429898797
0.9996493116845431
0.9996391502546438
0.9996292289198024
0.9996196271100664
0.9996104330846606
0.9996017429623167
0.9995936590355423
0.9995862872675495
0.9995797339157837
0.9995741012890015
0.9995694827217313
0.999565956933471
0.9995635820194619
0.9995623893847059
0.9995623779849343
0.9995635092924822
0.9995657033785764
0.9995688361835767
0.9995727379134561
0.9995771947474552
0.9995819578359763
0.9995867458429487
0.9995911998513797
0.9995948594012719
0.9995974822644027
0.9995992245064986
0.999597937349458
0.9995837982127671
0.9995602814419916
0
0
1.0002863732811709
1.0002805483222912
1.0002763469752136
1.0002758778498673
1.0002782887475417
1.0002830894733257
1.0002893440096023
1.00029650284772
1.0003042073774133
1.0003121128578931
1.000319879276481
1.0003272035355826
1.0003338260991341
1.0003395307429106
1.0003441462343134
1.0003475476350125
1.0003496553722946
1.0003504324032408
1.0003498800202442
1.0003480326625773
1.000344952080366
1.0003407212254385
1.0003354382229994
1.0003292107227726
1.0003221508575304
1.0003143709598954
1.000305980112044
1.000297081534437
1.0002877707641444
1.0002781345334497
1.0002682502356197
1.0002581858555861
1.000248000246131
1.000237743641768
1.000227458319436
1.0002171793342909
1.0002069352778056
1.000196749022257
1.0001866384294396
1.0001766170117337
1.0001666945405936
1.0001568776016458
1.0001471700975655
1.000137573700528
1.0001280882559207
1.000118712138697
1.000109442563601
1.0001002758506166
1.0000912076474286
1.0000822331113686
1.0000733470540295
1.0000645440524716
1.0000558185314032
1.000047164821026
1.0000385771951958
1.0000300498942847
1.000021577136671
1.0000131531221688
1.0000047720300602
0.9999964280137441
0.9999881151934249
0.9999798276477766
0.9999715594051173
0.999963304434351
0.9999550566357363
0.9999468098314255
0.9999385577556963
0.9999302940448024
0.9999220122264884
0.9999137057093824
0.9999053677727543
0.9998969915574955
0.9998885700596717
0.9998800961285591
0.9998715624717345
0.9998629616704372
0.9998542862090339
0.999845528522868
0.9998366810690167
0.99982773642442
0.999818687415438
0.9998095272821914
0.9998002498800803
0.9997908499198163
0.9997813232463478
0.9997716671563791
0.9997618807540127
0.9997519653444435
0.9997419248665819
0.9997317663667576
0.9997215005167835
0.9997111421800033
0.9997007110276527
0.9996902322040763
0.9996797370322119
0.9996692637397718
0.9996588581716103
0.9996485744353992
0.9996384754072819
0.9996286330037196
0.9996191281082
0.9996100500302441
0.9996014953728556
0.9995935661965448
0.9995863673957198
0.9995800032475027
0.9995745731525442
0.9995701666585635
0.9995668579343014
0.9995646999381449
0.9995637185927595
0.9995639073161707
0.99956522225717
0.9995675786247243
0.9995708486932595
0.9995748618663589
0.9995794051165644
0.9995842216910492
0.9995890167282578
0.9995934881660442
0.9995973171930874
0.9995999913764804
0.9996006056723369
0.9995986966734162
0.9995934205525292
0.999586864680872
0
0
1.0002685376377742
1.000271891658984
1.0002731777824005
1.0002734053889069
1.0002763041736025
1.0002813472516718
1.0002875879158337
1.0002946859623836
1.0003023448179906
1.0003102098881005
1.0003179491485015
1.0003252738344792
1.000331930792927
1.0003377046538753
1.000342422870554
1.0003459574981703
1.0003482243329926
1.0003491805463844
1.0003488210421663
1.0003471737347343
1.0003442941064102
1.0003402594274118
1.0003351629781416
1.0003291085610828
1.000322205529296
1.0003145644900038
1.0003062937717095
1.0002974966789537
1.0002882695050404
1.0002787002325855
1.0002688678254645
1.0002588420028364
1.0002486833845254
1.000238443904375
1.000228167401379
1.0002178903145915
1.0002076424246962
1.0001974476008515
1.000187324524887
1.0001772873755577
1.0001673464633247
1.0001575088113086
1.0001477786811988
1.0001381580446085
1.0001286470011355
1.0001192441447946
1.0001099468807355
1.000100751694513
1.0000916543766247
1.0000826502055995
1.0000737340934747
1.0000649006979805
1.0000561445060525
1.000047459893399
1.0000388411647159
1.0000302825788017
1.0000217783623362
1.0000133227155015
1.0000049098119945
0.999996533795373
0.9999881887731514
0.9999798688095739
0.999971567917665
0.9999632800508664
0.9999549990943958
0.9999467188563617
0.9999384330586297
0.9999301353274539
0.9999218191839877
0.9999134780349527
0.9999051051639868
0.9998966937245406
0.9998882367356365
0.999879727082318
0.999871157523226
0.9998625207083377
0.9998538092104846
0.9998450155747279
0.9998361323899587
0.9998271523871293
0.9998180685682909
0.9998088743701268
0.9997995638649466
0.9997901320013198
0.9997805748857379
0.9997708901061316
0.9997610770978123
0.9997511375525057
0.9997410758715847
0.9997308996650605
0.999720620298035
0.999710253485506
0.9996998199339717
0.9996893460234739
0.9996788645159217
0.9996684152644177
0.9996580458839279
0.9996478123266884
0.9996377792875616
0.9996280203472141
0.9996186177471589
0.9996096616834373
0.9996012490081958
0.9995934812433043
0.9995864618393353
0.9995802926570916
0.9995750697060332
0.9995708782409436
0.9995677873889293
0.9995658445472319
0.9995650698580116
0.9995654511272444
0.9995669395547807
0.9995694465143696
0.9995728416638388
0.9995769535365339
0.9995815733337824
0.9995864561813318
0.9995913128966201
0.9995958290435506
0.9995997439321216
0.9996027534034997
0.9996039448486006
0.9996027992071653
0.9996030642088385
0.9996057999544637
0
0
1.000263208516082
1.0002663322568934
1.0002684086034537
1.000270936295883
1.0002748520866782
1.0002798749783466
1.00028605921493
1.0002931319022688
1.0003007062050404
1.0003084596283716
1.0003161059060455
1.0003233705918648
1.0003300047147499
1.000335796629357
1.0003405750110872
1.0003442096793964
1.0003466117210889
1.000347732054225
1.0003475583885795
1.00034611104066
1.000343438003981
1.000339609602532
1.0003347130394478
1.0003288471247256
1.0003221174128587
1.0003146319181766
1.0003064975118374
1.0002978170445171
1.0002886871868635
1.0002791969386462
1.000269426728734
1.0002594480113298
1.0002493232580851
1.0002391062485991
1.000228842570977
1.0002185702570745
1.000208320491573
1.0001981183483717
1.0001879835206817
1.0001779310220027
1.0001679718435508
1.0001581135598603
1.0001483608784907
1.000138716132506
1.000129179716102
1.0001197504648525
1.0001104259828002
1.0001012029192498
1.0000920771986854
1.0000830442077744
1.0000740989438635
1.0000652361297149
1.000056450299379
1.0000477358600615
1.00003908713462
1.0000304983889134
1.0000219638477088
1.00001347770226
1.0000050341120579
0.999996627202673
0.9999882510610899
0.9999798997295098
0.9999715671982341
0.9999632473980107
0.9999549341920356
0.9999466213677058
0.9999383026281852
0.9999299715838621
0.9999216217438679
0.9999132465079803
0.9999048391594643
0.9998963928597314
0.9998879006461014
0.9998793554344602
0.9998707500291427
0.9998620771429824
0.999853329431015
0.9998444995418105
0.999835580190747
0.999826564259671
0.999817444927309
0.9998082158344493
0.9997988712874257
0.9997894065027677
0.9997798178952464
0.9997701034109784
0.9997602629068353
0.9997502985771809
0.9997402154287998
0.9997300218045584
0.9997197299554925
0.9997093566591155
0.9996989238782367
0.9996884594488744
0.9996779977775402
0.9996675805170827
0.999657257176681
0.9996470856062626
0.9996371322799663
0.9996274722892889
0.9996181889466597
0.999609372897146
0.9996011206424119
0.9995935323991286
0.9995867092450111
0.9995807495493859
0.9995757447399719
0.9995717745206166
0.9995689017219604
0.999567167029795
0.9995665838800445
0.9995671338444434
0.9995687629190332
0.9995713792025563
0.9995748520002947
0.9995790116152875
0.9995836512762001
0.9995885377409779
0.9995934240388816
0.9995980254187367
0.9996019907319527
0.9996050775133175
0.9996073635985478
0.9996085816722425
0.9996096805548502
0.999612216633168
0
0
1.0002615504413837
1.0002634499431524
1.0002659373023683
1.0002694806914378
1.000273662809922
1.0002788246727774
1.0002850360351208
1.000291970894475
1.0002993517837842
1.0003069195428966
1.000314399145708
1.0003215265828809
1.0003280664605605
1.000333814723935
1.0003386015848148
1.000342294859208
1.0003448010928633
1.0003460645757682
1.000346064967669
1.0003448138512323
1.0003423504429712
1.0003387367672822
1.0003340526094597
1.0003283905248883
1.0003218511336875
1.0003145388784538
1.0003065583670112
1.0002980113665678
1.0002889944654219
1.000279597376654
1.0002699018268444
1.0002599809522064
1.000249899114005
1.0002397120432385
1.0002294672293301
1.000219204476917
1.0002089565666363
1.0001987499684608
1.0001886055682339
1.0001785393788103
1.0001685632161557
1.0001586853277598
1.0001489109660093
1.000139242902939
1.0001296818854353
1.0001202270318301
1.0001108761721205
1.0001016261350404
1.0000924729859366
1.0000834122199789
1.000074438915621
1.0000655478534695
1.0000567336057278
1.0000479906012627
1.000039313170997
1.000030695577888
1.0000221320351865
1.0000136167160756
1.0000051437571864
0.9999967072579101
0.999988301276943
0.999979919827062
0.9999715568688122
0.9999632063035331
0.9999548619659826
0.9999465176167167
0.9999381669343471
0.9999298035078138
0.9999214208288992
0.9999130122853482
0.9999045711551918
0.9998960906031686
0.9998875636805324
0.9998789833300091
0.9998703423981886
0.9998616336582157
0.9998528498462024
0.999843983715272
0.9998350281115468
0.9998259760765884
0.9998168209808553
0.999807556692541
0.9997981777857949
0.9997886797918375
0.9997790594958644
0.999769315282056
0.9997594475283791
0.9997494590522497
0.9997393556073461
0.9997291464307134
0.9997188448374588
0.9997084688573532
0.9996980419031283
0.9996875934537315
0.9996771597271096
0.9996667843062161
0.9996565186693451
0.9996464225624967
0.9996365641386841
0.9996270197788129
0.9996178735031872
0.9996092158842141
0.9996011423815834
0.9995937510426685
0.9995871395438319
0.9995814015921648
0.9995766227597855
0.9995728758802306
0.9995702161947139
0.9995686764949732
0.9995682625632585
0.999568949220637
0.9995706772437797
0.9995733515050249
0.9995768410892365
0.9995809815831881
0.9995855771030344
0.9995904022045765
0.999595218359562
0.9995998002938015
0.9996039025353994
0.9996072267819394
0.9996098603804318
0.9996121608183194
0.9996137273957173
0.9996150525946897
0
0
1.000261341749187
1.000262979804036
1.0002655488508505
1.0002689833894072
1.0002732477722192
1.0002785035899964
1.000284557429846
1.0002912379655324
1.0002983561728624
1.000305656352659
1.0003128808746857
1.00031979099836
1.0003261656566533
1.0003318070075897
1.000336547799655
1.00034025492178
1.0003428305146622
1.0003442118232315
1.000344369768753
1.0003433062839553
1.000341050710857
1.0003376555792693
1.000333192043895
1.0003277452367605
1.0003214097657596
1.0003142855487617
1.000306474123411
1.0002980755222326
1.0002891857549523
1.000279894897995
1.0002702857572074
1.000260433045217
1.0002504029994386
1.0002402533598336
1.0002300336255863
1.0002197855152322
1.0002095435635436
1.0001993357991192
1.0001891844576545
1.0001791066963903
1.0001691152845433
1.0001592192523439
1.000149424487586
1.0001397342734162
1.000130149764746
1.000120670403312
1.0001112942733665
1.0001020184013514
1.0000928390038932
1.0000837516891263
1.0000747516167203
1.0000658336221662
1.0000569923108025
1.0000482221268197
1.0000395174020935
1.0000308723891633
1.0000222812820918
1.0000137382283303
1.0000052373340995
0.9999967726652416
0.9999883382450085
0.9999799280498471
0.99997153600391
0.9999631559727805
0.9999547817567402
0.9999464070837956
0.9999380256026508
0.9999296308758227
0.9999212163731784
0.9999127754663127
0.9999043014243991
0.9998957874124345
0.999887226493182
0.9998786116345539
0.9998699357247006
0.9998611915976247
0.9998523720727063
0.9998434700120286
0.9998344783998536
0.999825390448866
0.9998161997379692
0.9998069003863421
0.9997974872682289
0.999787956272518
0.9997783046105903
0.9997685311752086
0.9997586369523503
0.9997486254867926
0.9997385034008257
0.9997282809634452
0.9997179727045259
0.9997075980644416
0.999697182064094
0.9996867559730833
0.9996763579448318
0.999666033577008
0.9996558363442911
0.9996458278393081
0.9996360777479777
0.9996266634792068
0.9996176693679601
0.9996091853769995
0.9996013052377735
0.9995941239959032
0.999587734961453
0.9995822261075551
0.9995776760109121
0.9995741494809421
0.9995716930745386
0.9995703307330381
0.9995700598151465
0.9995708478549313
0.9995726303761859
0.9995753098701029
0.9995787559796248
0.9995828080699862
0.9995872816089527
0.999591973066064
0.9995966583523662
0.9996011126211528
0.999605173648347
0.9996086935555171
0.999611498119498
0.9996137637183251
0.9996154667141537
0.99961655172969
0
0
1.0002626961584244
1.0002641524130769
1.000266485455425
1.00026968408448
1.0002738574532835
1.0002788949436063
1.0002846488306838
1.0002910081974488
1.0002977688456554
1.0003047031687204
1.0003115896211014
1.0003182077037225
1.0003243471487389
1.000329818731034
1.0003344593921697
1.0003381352624046
1.0003407439762042
1.0003422155435941
1.0003425116760984
1.000341623908838
1.0003395707849945
1.0003363943164392
1.0003321559627165
1.000326932380035
1.0003208111706825
1.0003138868297596
1.0003062570467174
1.0002980194753672
1.000289269041167
1.000280095812682
1.0002705834279888
1.0002608080382698
1.0002508377105843
1.000240732219678
1.0002305431538372
1.0002203142608626
1.0002100819656787
1.0001998759993753
1.000189720089195
1.0001796326689922
1.0001696275792282
1.0001597147340242
1.0001499007400436
1.000140189457818
1.000130582500775
1.0001210796707471
1.0001116793313476
1.0001023787224903
1.0000931742205952
1.000084061549856
1.0000750359503663
1.000066092309043
1.0000572252591573
1.0000484292539575
1.0000396986194062
1.0000310275904742
1.000022410334803
1.000013840966915
1.0000053135555405
0.9999968221260562
0.9999883606595587
0.999979923089688
0.999971503297991
0.9999630951083818
0.9999546922810814
0.9999462885063274
0.9999378773980905
0.9999294524880611
0.9999210072202344
0.9999125349465623
0.9999040289243454
0.9998954823163206
0.9998868881947571
0.9998782395513137
0.9998695293149178
0.9998607503804728
0.9998518956517793
0.9998429581025926
0.9998339308602399
0.9998248073165804
0.9998155812713394
0.9998062471128724
0.999796800041291
0.999787236338477
0.9997775536889192
0.9997677515544272
0.9997578316045794
0.9997477982031509
0.9997376589486248
0.9997274252639571
0.9997171130269273
0.9997067432273289
0.9996963426308825
0.9996859444219349
0.9996755887880455
0.9996653233997288
0.9996552037288577
0.9996452931405189
0.9996356626869549
0.9996263905302574
0.9996175609243424
0.9996092626979884
0.9996015872003347
0.9995946256986006
0.9995884662542381
0.999583190146441
0.9995788679578065
0.999575555482853
0.9995732896642031
0.9995720847969554
0.9995719292507517
0.9995727829491913
0.999574575908213
0.9995772082196144
0.9995805514602502
0.999584450883217
0.9995887297458491
0.9995931993212882
0.9995976676522305
0.9996019344268167
0.9996058193165908
0.9996092310385433
0.9996120393219653
0.9996141469825358
0.9996156700903818
0.9996166045366883
0
0
1.0002654731974123
1.0002665919234448
1.0002685935568436
1.0002715275634337
1.0002753775613338
1.000280026445436
1.0002853866131927
1.000291308883225
1.0002976058397568
1.0003040901827411
1.0003105601036317
1.0003168102261857
1.0003226453876444
1.0003278861821885
1.000332373379144
1.0003359725457452
1.0003385771153397
1.0003401097759894
1.0003405226189113
1.000339796176058
1.0003379374316934
1.000334976999105
1.0003309656944188
1.0003259707363326
1.0003200717921366
1.0003133570738845
1.0003059196596025
1.0002978541766967
1.0002892539434203
1.0002802086231348
1.0002708024082434
1.000261112718503
1.0002512093733558
1.0002411541805694
1.0002310008734983
1.0002207953258213
1.000210575974401
1.000200374386552
1.0001902159160778
1.00018012040173
1.000170102871248
1.0001601742231672
1.000150341866625
1.0001406103062753
1.0001309816650341
1.0001214561418057
1.000112032404668
1.0001027079224527
1.0000934792392777
1.0000843421976584
1.0000752921163427
1.0000663239291772
1.0000574322911417
1.0000486116573295
1.0000398563401045
1.0000311605490466
1.000022518417636
1.00001392401993
1.0000053713799035
0.9999968544755087
0.9999883672390502
0.9999799035550617
0.999971457256528
0.9999630221200896
0.9999545918606692
0.9999461601258626
0.999937720490407
0.9999292664510288
0.999920791422061
0.9999122887323427
0.9999037516241174
0.9998951732549253
0.9998865467038265
0.999877864983737
0.9998691210621552
0.9998603078931135
0.9998514184637799
0.9998424458597186
0.9998333833533466
0.9998242245205843
0.9998149633909921
0.9998055946368231
0.9997961138063086
0.9997865176061216
0.999776804237249
0.9997669737874074
0.9997570286815491
0.9997469741898292
0.9997368189894791
0.9997265757732327
0.9997162618920664
0.9997059000140304
0.9996955187737359
0.999685153378876
0.9996748461312887
0.9996646468111678
0.9996546128650401
0.9996448093321719
0.9996353084416628
0.9996261888149776
0.9996175342175244
0.9996094318191007
0.9996019699470416
0.9995952353473669
0.9995893100067973
0.9995842676300307
0.999580169908917
0.9995770627582539
0.9995749727225735
0.9995739037821302
0.9995738348056451
0.9995747178754394
0.9995764776228123
0.9995790117556186
0.9995821932560454
0.9995858742042262
0.9995898895873839
0.9995940623235114
0.9995982164246513
0.9996021877043729
0.9996058094688015
0.9996089499480967
0.9996115351409356
0.999613458508663
0.9996147099906684
0.9996153451544
0
0
1.0002693763155563
1.0002701364810656
1.000271786292732
1.0002743456126415
1.0002777461162817
1.000281921078174
1.0002867695700848
1.0002921436622851
1.0002978918027188
1.0003038447845496
1.0003098181967451
1.00031562741769
1.0003210923561185
1.0003260424322833
1.000330322858056
1.0003337993564927
1.0003363613378249
1.0003379240859194
1.0003384298462985
1.0003378477309042
1.0003361725590636
1.0003334228011849
1.0003296377990776
1.0003248744618096
1.0003192036514703
1.0003127064679134
1.0003054706214942
1.0002975870530608
1.0002891469239283
1.0002802390588683
1.0002709478860363
1.0002613518823167
1.0002515225029829
1.0002415235520004
1.0002314109341528
1.0002212327219648
1.0002110294682873
1.0002008346980968
1.0001906755191965
1.0001805732997902
1.0001705443701807
1.0001606007152122
1.0001507506328484
1.000140999342103
1.000131349530111
1.0001218018334777
1.000112355253155
1.0001030075051478
1.000093755311433
1.000084594636816
1.000075520878134
1.0000665290124373
1.0000576137106234
1.0000487694226008
1.0000399904394683
1.0000312709375359
1.0000226050082928
1.000013986677737
1.0000054099178173
0.9999968686521727
0.9999883567578334
0.9999798680641483
0.9999713963498725
0.9999629353391014
0.9999544786965631
0.999946020022678
0.9999375528487409
0.9999290706325952
0.9999205667552328
0.999912034518887
0.9999034671473793
0.9998948577897628
0.9998861995286443
0.9998774853950071
0.9998687083918661
0.9998598615296518
0.9998509378768289
0.9998419306298848
0.9998328332073959
0.9998236393733949
0.9998143433956395
0.9998049402445355
0.9997954258384073
0.9997857973403453
0.9997760535110178
0.9997661951204418
0.9997562254196743
0.9997461506705798
0.9997359807281303
0.9997257296649587
0.999715416422069
0.9997050654627077
0.9996947073985487
0.9996843795489028
0.9996741263851565
0.9996639998048884
0.9996540591741806
0.9996443710737374
0.9996350086859386
0.9996260507671157
0.999617580163218
0.9996096818481232
0.9996024404920268
0.9995959376015914
0.9995902483117742
0.9995854379484842
0.999581558518179
0.9995786453118676
0.9995767138312358
0.999575757246629
0.9995757445884457
0.9995766198788832
0.9995783023770775
0.9995806879227551
0.9995836513291777
0.9995870503941546
0.999590731600477
0.9995945347693913
0.9995982975844774
0.9996018702116634
0.999605117901046
0.999607907256785
0.9996101482631841
0.9996117815261462
0.9996127439487844
0.9996130603784353
0
0
1.0002742219268688
1.0002746598503824
1.00027593119184
1.0002780346550122
1.0002809232792433
1.0002845388230064
1.0002887775023976
1.0002935222946803
1.0002986417561583
1.0003039836977956
1.0003093875938058
1.000314688206724
1.0003197191759277
1.0003243198663672
1.0003283408695183
1.000331648356769
1.0003341279502231
1.0003356877194844
1.0003362600390417
1.0003358023478723
1.0003342968676772
1.0003317493461967
1.0003281869557448
1.0003236555264603
1.0003182163159063
1.000311942523033
1.0003049157473676
1.0002972225734523
1.00028895142912
1.000280189828645
1.000271022072196
1.000261527434922
1.000251778845196
1.0002418420239814
1.0002317750369254
1.0002216281977498
1.0002114442552354
1.000201258795559
1.0001911007956383
1.0001809932701151
1.0001709539634092
1.0001609960477802
1.0001511287977
1.000141358219508
1.0001316876228235
1.0001221181264681
1.0001126490965688
1.000103278518232
1.0000940033047658
1.0000848195501155
1.0000757227310757
1.0000667078661882
1.0000577696381148
1.0000489024858734
1.000040100672706
1.000031358334655
1.000022669514152
1.0000140281822079
1.000005428252107
0.9999968635868953
0.9999883280024511
0.9999798152674807
0.9999713191014631
0.9999628331712985
0.9999543510872421
0.9999458663985915
0.9999373725895402
0.9999288630756195
0.99992033120122
0.9999117702388091
0.9999031733906624
0.9998945337942025
0.9998858445323948
0.9998770986510834
0.9998682891856786
0.9998594092001865
0.9998504518422174
0.9998414104182655
0.9998322784941731
0.9998230500262725
0.9998137195290867
0.9998042822856887
0.9997947346066702
0.9997850741431625
0.9997753002582641
0.999765414459502
0.9997554208924124
0.999745326891872
0.9997351435832695
0.9997248865200031
0.9997145763370423
0.9997042393925961
0.9996939083615959
0.9996836227361838
0.9996734291805044
0.999663381680749
0.9996535414277977
0.9996439763701737
0.9996347603806567
0.9996259719918092
0.9996176926745182
0.9996100046594404
0.9996029883332183
0.9995967192777462
0.9995912650590881
0.9995866819093037
0.9995830114751547
0.9995802778286167
0.9995784849440714
0.9995776148424491
0.9995776265709793
0.9995784561376608
0.9995800175139486
0.9995822048061778
0.9995848954018777
0.9995879537512192
0.9995912364260832
0.9995945986771821
0.999597898024907
0.9996009979430436
0.9996037800783827
0.9996061382240775
0.9996079769835681
0.9996092431821136
0.9996098926969055
0.9996099274795694
0
0
1.0002799002067821
1.0002800362481974
1.0002809079905788
1.0002825196840164
1.0002848454950128
1.0002878300575484
1.0002913921539387
1.0002954391876249
1.0002998577407498
1.0003045205824759
1.0003092900259214
1.000314018812129
1.00031855579319
1.0003227512360942
1.0003264614212828
1.000329553489354
1.0003319098442367
1.0003334316890626
1.0003340416608295
1.0003336854825071
1.0003323325531244
1.0003299754980113
1.0003266287768582
1.0003223264939547
1.0003171195924638
1.0003110726382698
1.0003042604035965
1.000296764448307
1.0002886698715279
1.0002800623718864
1.0002710257153369
1.0002616396694157
1.000251978425254
1.000242109496398
1.000232093058073
1.000221981672564
1.000211820335806
1.0002016467762418
1.0001914919383492
1.000181380588637
1.0001713319899193
1.000161360599122
1.0001514767536515
1.0001416873207416
1.0001319962926056
1.0001224053173732
1.00011291416158
1.000103521104372
1.0000942232667662
1.0000850168813828
1.0000758975092614
1.000066860210857
1.00005789967831
1.0000490103356694
1.000040186413163
1.000031422000841
1.0000227110861613
1.0000140475792902
1.0000054253292099
0.9999968381330593
0.9999882797406197
0.9999797438554058
0.9999712241334611
0.9999627141807017
0.9999542075494579
0.9999456977347418
0.9999371781707128
0.9999286422278222
0.9999200832111798
0.9999114943608164
0.9999028688547286
0.9998941998158559
0.999885480324525
0.9998767034383271
0.9998678622219536
0.9998589497901031
0.9998499593672634
0.9998408843688563
0.9998317185089018
0.9998224559399683
0.9998130914315894
0.9998036205935216
0.9997940401500258
0.9997843482706515
0.9997745449616927
0.9997646325203189
0.9997546160503157
0.9997445040341975
0.999734308951106
0.9997240479234176
0.999713743367402
0.9997034236149096
0.9996931234643784
0.9996828846111293
0.9996727558998477
0.9996627933375047
0.9996530598039262
0.9996436244010873
0.9996345613920774
0.9996259486973297
0.9996178659393922
0.999610392057694
0.9996036025500536
0.9995975664356863
0.9995923430719141
0.9995879789898775
0.999584504939142
0.999581933342448
0.9995802563563123
0.9995794447134915
0.999579447492001
0.9995801928929788
0.9995815900157807
0.9995835316094195
0.9995858978148106
0.9995885605307047
0.9995913877436627
0.9995942487089531
0.9995970196581934
0.9995995849764959
0.9996018407055199
0.9996037014834362
0.9996050913779455
0.999605957996493
0.9996062761775063
0.9996060513004814
0
0
1.0002863125998924
1.0002861561801095
1.0002866200258402
1.0002877197887734
1.000289442240359
1.0002917489360497
1.0002945844275801
1.0002978766655959
1.0003015370987542
1.0003054641527354
1.000309541744273
1.0003136422622985
1.0003176307199646
1.0003213685647123
1.0003247184865267
1.0003275494356672
1.0003297412375938
1.0003311887238742
1.0003318051606864
1.0003315247384126
1.0003303040134504
1.0003281222801543
1.000324980912306
1.0003209017805583
1.0003159249091427
1.000310105570942
1.0003035110358158
1.000296217184898
1.0002883051854619
1.000279858390541
1.0002709595892942
1.0002616886927396
1.0002521208988908
1.0002423253447636
1.0002323642224427
1.000222292313571
1.0002121568815965
1.0002019978533516
1.0001918482200851
1.0001817345915212
1.000171677843497
1.0001616938088365
1.0001517939711184
1.000141986130957
1.0001322750236499
1.0001226628750657
1.0001131498892621
1.0001037346664912
1.0000944145540267
1.000085185934787
1.000076044460269
1.0000669852350117
1.000058002959906
1.0000490920413556
1.000040246672669
1.0000314608933338
1.0000227286309833
1.0000140437300924
1.0000053999706695
0.9999967910795613
0.9999882107364172
0.9999796525758873
0.9999711101872638
0.9999625771124938
0.999954046843278
0.999945512817861
0.9999369684180359
0.9999284069669082
0.9999198217280163
0.9999112059065522
0.9999025526536314
0.9998938550748471
0.9998851062447344
0.9998762992292287
0.9998674271187642
0.9998584830753048
0.9998494603972997
0.9998403526072775
0.9998311535675151
0.9998218576298147
0.9998124598258725
0.9998029561048333
0.9997933436243428
0.9997836211005002
0.9997737892204668
0.999763851118886
0.9997538129155965
0.9997436843072138
0.999733479199017
0.999723216356228
0.9997129200454508
0.9997026206281491
0.9996923550592033
0.9996821672356625
0.9996721081348625
0.999662235678369
0.9996526142599774
0.9996433138835186
0.9996344088703981
0.999625976118104
0.9996180929192009
0.9996108343844499
0.9996042705517055
0.9995984633011411
0.9995934632332734
0.9995893066948056
0.9995860131542396
0.9995835831311985
0.9995819968667715
0.9995812138837854
0.9995811735334719
0.9995817965718827
0.9995829877268572
0.9995846390874296
0.9995866341459229
0.9995888524354514
0.9995911741832397
0.9995934841917403
0.9995956761693272
0.9995976560099196
0.9995993407449266
0.9996006621351811
0.9996015668171578
0.999602016851161
0.999601997871542
0.9996015246050546
0
0
1.0002933620619332
1.0002929221906423
1.0002929769881952
1.0002935511893498
1.0002946458147859
1.0002962449392179
1.00029831634353
1.0003008122986823
1.000303671297841
1.0003068163217719
1.000310154307732
1.0003135783247383