# vtk DataFile Version 2.0
2D-ADE data file 
ASCII
DATASET RECTILINEAR_GRID
DIMENSIONS 128 128 1 
X_COORDINATES 128 int
0 1 2 3 4 5 6 7 8 9 10 11 12 13 14 15 16 17 18 19 20 21 22 23 24 25 26 27 28 29 30 31 32 33 34 35 36 37 38 39 40 41 42 43 44 45 46 47 48 49 50 51 52 53 54 55 56 57 58 59 60 61 62 63 64 65 66 67 68 69 70 71 72 73 74 75 76 77 78 79 80 81 82 83 84 85 86 87 88 89 90 91 92 93 94 95 96 97 98 99 100 101 102 103 104 105 106 107 108 109 110 111 112 113 114 115 116 117 118 119 120 121 122 123 124 125 126 127 
Y_COORDINATES 128 int
0 1 2 3 4 5 6 7 8 9 10 11 12 13 14 15 16 17 18 19 20 21 22 23 24 25 26 27 28 29 30 31 32 33 34 35 36 37 38 39 40 41 42 43 44 45 46 47 48 49 50 51 52 53 54 55 56 57 58 59 60 61 62 63 64 65 66 67 68 69 70 71 72 73 74 75 76 77 78 79 80 81 82 83 84 85 86 87 88 89 90 91 92 93 94 95 96 97 98 99 100 101 102 103 104 105 106 107 108 109 110 111 112 113 114 115 116 117 118 119 120 121 122 123 124 125 126 127 
Z_COORDINATES 1 int
0
POINT_DATA 16384
SCALARS density double
LOOKUP_TABLE default
0
0
0
0
0
0
0
0
0
0
0
0
0
0
0
0
0
0
0
0
0
0
0
0
0
0
0
0
0
0
0
0
0
0
0
0
0
0
0
0
0
0
0
0
0
0
0
0
0
0
0
0
0
0
0
0
0
0
0
0
0
0
0
0
0
0
0
0
0
0
0
0
0
0
0
0
0
0
0
0
0
0
0
0
0
0
0
0
0
0
0
0
0
0
0
0
0
0
0
0
0
0
0
0
0
0
0
0
0
0
0
0
0
0
0
0
0
0
0
0
0
0
0
0
0
0
0
0
0
0.9996930900410834
0.9996930908741715
0.9996929609322004
0.9996926711261315
0.9996922221574382
0.9996916471762594
0.9996909776936835
0.9996902396794165
0.9996894557238961
0.9996886459579487
0.999687827894914
0.9996870166437004
0.9996862252449336
0.9996854649578746
0.9996847454825066
0.999684075155997
0.9996834611273336
0.999682909509557
0.9996824255115706
0.9996820135528921
0.9996816773637092
0.9996814200720924
0.9996812442799818
0.9996811521293698
0.9996811453598825
0.999681225358778
0.9996813932042377
0.9996816497027042
0.9996819954209147
0.9996824307132047
0.9996829557445736
0.99968357050996
0.9996842748501176
0.9996850684644413
0.9996859509210666
0.99968692166453
0.9996879800212515
0.9996891252030918
0.9996903563091997
0.9996916723263681
0.9996930721280948
0.9996945544725225
0.9996961179994486
0.9996977612265534
0.999699482545012
0.9997012802146336
0.9997031523586685
0.9997050969584214
0.999707111847793
0.9997091947078774
0.9997113430617305
0.9997135542694245
0.9997158255234969
0.9997181538448939
0.999720536079516
0.9997229688954552
0.9997254487810181
0.9997279720436223
0.9997305348096512
0.9997331330253394
0.9997357624587722
0.9997384187030568
0.9997410971807352
0.9997437931494888
0.9997465017091888
0.9997492178103289
0.9997519362638769
0.9997546517525637
0.999757358843632
0.99976005200304
0.9997627256111137
0.9997653739796379
0.9997679913703412
0.9997705720147346
0.9997731101352559
0.9997755999676311
0.9997780357843828
0.9997804119193794
0.9997827227933158
0.9997849629400051
0.9997871270333343
0.9997892099147516
0.999791206621114
0.999793112412739
0.9997949228014871
0.9997966335786943
0.9997982408427827
0.9997997410263659
0.999801130922681
0.9998024077111737
0.9998035689820873
0.9998046127599026
0.9998055375255179
0.9998063422370563
0.9998070263492308
0.9998075898312273
0.9998080331831007
0.9998083574507227
0.9998085642393795
0.9998086557261568
0.9998086346713402
0.9998085044291029
0.999808268957859
0.9998079328307375
0.999807501246743
0.9998069800432757
0.9998063757108164
0.9998056954107158
0.9998049469971848
0.9998041390447413
0.9998032808824675
0.9998023826365365
0.999801455282653
0.9998005107106581
0.9997995618013689
0.9997986225134076
0.9997977079782527
0.9997968346352908
0.9997960203685499
0.9997952845004374
0.9997946473209979
0.9997941305791367
0.9997937584079001
0.999793553297498
0.9997934998299676
0.9997935505224926
0
0
0.9996930267271273
0.9996930450559071
0.9996929250002837
0.9996926571040297
0.9996922627602103
0.9996917590139868
0.9996911681466055
0.9996905120968291
0.9996898113361217
0.9996890839084333
0.9996883458342949
0.9996876112577063
0.9996868925968778
0.9996862006958493
0.9996855450002325
0.99968493371624
0.9996843739528706
0.9996838718489716
0.999683432687259
0.9996830609956529
0.999682760636938
0.9996825348879417
0.9996823865093171
0.9996823178069294
0.9996823306856982
0.9996824266967078
0.9996826070782577
0.9996828727915011
0.9996832245511938
0.9996836628520616
0.999684187991214
0.999684800087002
0.9996854990946685
0.9996862848191215
0.9996871569251123
0.9996881149450999
0.9996891582850357
0.9996902862283151
0.9996914979380895
0.9996927924581566
0.9996941687126034
0.9996956255043875
0.9996971615130109
0.9996987752914602
0.9997004652625453
0.9997022297147932
0.9997040667980189
0.9997059745187169
0.9997079507353818
0.9997099931538895
0.9997120993230396
0.9997142666303833
0.9997164922984232
0.9997187733812997
0.9997211067620505
0.9997234891505414
0.9997259170821501
0.9997283869172898
0.9997308948418521
0.9997334368686384
0.9997360088398557
0.9997386064307351
0.9997412251543325
0.9997438603675635
0.9997465072785172
0.999749160955084
0.9997518163349299
0.9997544682368347
0.9997571113734034
0.9997597403651588
0.9997623497559958
0.999764934029983
0.9997674876294779
0.9997700049745052
0.9997724804833508
0.9997749085942895
0.9997772837883723
0.9997796006131735
0.999781853707391
0.9997840378261782
0.9997861478670792
0.9997881788964249
0.9997901261760397
0.9997919851901015
0.9997937516719926
0.9997954216309722
0.9997969913785103
0.9997984575540982
0.9997998171503947
0.9998010675375297
0.9998022064864377
0.9998032321910685
0.9998041432893796
0.9998049388829979
0.9998056185554975
0.9998061823892416
0.9998066309807947
0.9998069654549379
0.9998071874773673
0.999807299266207
0.9998073036025273
0.9998072038401095
0.9998070039147852
0.9998067083537227
0.9998063222851449
0.9998058514490046
0.9998053022092745
0.999804681568536
0.999803997185665
0.999803257397422
0.999802471244819
0.9998016485050262
0.9998007997292415
0.999799936285992
0.999799070410418
0.999798215258578
0.9997973849622559
0.9997965946423256
0.9997958603940352
0.9997951992303793
0.9997946291589243
0.9997941679504837
0.9997938314556931
0.9997936282891116
0.9997935648122475
0.9997936199740483
0
0
0.999693106379523
0.999693134340655
0.9996930204765978
0.9996927699218519
0.9996924100840991
0.9996919536403178
0.9996914195268971
0.9996908262404874
0.9996901913466546
0.9996895307859561
0.9996888591150387
0.9996881893791913
0.9996875331774069
0.999686900767567
0.9996863011911158
0.9996857423850652
0.9996852312915472
0.9996847739613389
0.9996843756494235
0.9996840409016043
0.9996837736326766
0.9996835771966268
0.999683454449336
0.9996834078043519
0.9996834392822724
0.9996835505543168
0.9996837429805766
0.9996840176434373
0.999684375376594
0.9996848167900835
0.9996853422916748
0.9996859521049877
0.9996866462846168
0.9996874247285802
0.9996882871883284
0.9996892332765793
0.9996902624731935
0.9996913741293161
0.9996925674699659
0.999693841595284
0.9996951954805883
0.9996966279754342
0.9996981378018036
0.9996997235516062
0.9997013836836055
0.9997031165199295
0.9997049202422761
0.9997067928879532
0.9997087323458578
0.9997107363525171
0.9997128024882938
0.9997149281738666
0.999717110667078
0.9997193470602507
0.9997216342780605
0.9997239690760571
0.999726348039913
0.9997287675854806
0.9997312239597316
0.9997337132426513
0.999736231350149
0.999738774038049
0.9997413369072112
0.9997439154098335
0.9997465048569738
0.9997491004273269
0.9997516971772862
0.9997542900522947
0.9997568738995132
0.9997594434817854
0.9997619934929007
0.999764518574129
0.9997670133319873
0.9997694723572067
0.9997718902448298
0.999774261615375
0.9997765811369844
0.9997788435484661
0.9997810436831216
0.9997831764932417
0.9997852370751493
0.9997872206946491
0.9997891228127422
0.9997909391114503
0.9997926655196013
0.9997942982384037
0.999795833766666
0.999797268925481
0.9997986008822395
0.9997998271738004
0.9998009457287061
0.9998019548882836
0.9998028534265501
0.999803640568805
0.9998043160088681
0.9998048799248951
0.9998053329937888
0.9998056764042069
0.9998059118682563
0.9998060416319603
0.9998060684846758
0.9998059957676442
0.9998058273819558
0.9998055677962212
0.9998052220543368
0.9998047957837345
0.9998042952046103
0.9998037271405923
0.9998030990313758
0.9998024189477284
0.9998016956092189
0.9998009384048188
0.9998001574164472
0.9997993634437456
0.9997985680272667
0.9997977834652247
0.9997970228308328
0.9997962999561146
0.9997956293555765
0.9997950259456304
0.9997945050645624
0.9997940816455042
0.9997937693814495
0.9997935743800769
0.9997935132244441
0.9997935841271711
0
0
0.9996933657452131
0.9996933731395923
0.99969324489931
0.9996929969729066
0.999692651688366
0.999692222848933
0.9996917269453576
0.9996911789943117
0.9996905939824323
0.9996899860132118
0.9996893680990647
0.999688752039714
0.9996881484959271
0.9996875670259088
0.9996870161460163
0.9996865034065106
0.9996860354747461
0.9996856182151683
0.9996852567654564
0.9996849556081145
0.9996847186368217
0.9996845492171105
0.9996844502413726
0.9996844241784488
0.9996844731180154
0.9996845988101332
0.9996848027002303
0.9996850859599055
0.9996854495138247
0.9996858940630746
0.9996864201052171
0.999687027951375
0.9996877177405713
0.9996884894516022
0.9996893429126487
0.999690277808875
0.9996912936881903
0.9996923899653954
0.9996935659248753
0.9996948207220315
0.9996961533835973
0.9996975628070163
0.9996990477590061
0.9997006068734782
0.999702238648915
0.9997039414453696
0.9997057134811749
0.9997075528295136
0.9997094574149319
0.9997114250099296
0.9997134532317102
0.9997155395392104
0.9997176812304815
0.999719875440539
0.9997221191397431
0.9997244091328163
0.9997267420585586
0.9997291143903505
0.9997315224375017
0.9997339623475264
0.99973643010939
0.9997389215578041
0.9997414323785958
0.9997439581152232
0.9997464941764519
0.9997490358452376
0.9997515782888345
0.9997541165701435
0.9997566456603092
0.9997591604525606
0.9997616557772842
0.9997641264183061
0.9997665671303478
0.9997689726576159
0.9997713377534605
0.9997736572010427
0.9997759258349255
0.9997781385634996
0.9997802903921457
0.9997823764470076
0.9997843919992713
0.9997863324898008
0.9997881935540053
0.9997899710467786
0.9997916610673687
0.9997932599840158
0.9997947644582111
0.9997961714684093
0.9997974783330549
0.999798682732768
0.9997997827315629
0.999800776796956
0.9998016638188809
0.9998024431272869
0.9998031145083819
0.9998036782194427
0.999804135002206
0.9998044860948201
0.9998047332424358
0.9998048787064909
0.9998049252728309
0.9998048762588054
0.9998047355195628
0.9998045074537519
0.9998041970089269
0.9998038096869214
0.9998033515495256
0.9998028292247154
0.9998022499137182
0.9998016213990513
0.9998009520535204
0.9998002508495819
0.9997995273682911
0.999798791806738
0.9997980549828055
0.9997973283262636
0.9997966238484376
0.9997959540810086
0.9997953320410841
0.9997947710065144
0.9997942842018155
0.9997938838685629
0.9997935825558535
0.9997933896070027
0.9997933234755995
0.9997933947981037
0
0
0.9996937869123039
0.9996937394068842
0.9996935786425803
0.9996933183606208
0.999692973147166
0.9996925568769384
0.9996920834737746
0.9996915658520561
0.9996910169323914
0.9996904489356677
0.999689873312148
0.9996893006442311
0.9996887406181029
0.9996882020113829
0.9996876927294049
0.9996872198534188
0.9996867896950564
0.9996864078538946
0.9996860792764122
0.9996858083134528
0.9996855987747639
0.9996854539800235
0.9996853768060008
0.9996853697297216
0.9996854348675803
0.9996855740105581
0.9996857886556458
0.9996860800337288
0.9996864491340941
0.999686896725833
0.9996874233763161
0.9996880294670067
0.9996887152067925
0.9996894806430762
0.9996903256707929
0.9996912500395826
0.9996922533592618
0.9996933351038115
0.9996944946140034
0.9996957310988723
0.9996970436361365
0.9996984311717597
0.9996998925187486
0.9997014263553593
0.9997030312228022
0.999704705522603
0.9997064475136984
0.9997082553094184
0.9997101268744211
0.9997120600217227
0.9997140524098834
0.9997161015404818
0.9997182047559304
0.9997203592377545
0.9997225620053897
0.9997248099155994
0.9997270996625693
0.9997294277787704
0.9997317906366333
0.9997341844511288
0.9997366052832791
0.9997390490446852
0.99974151150309
0.9997439882890452
0.9997464749036981
0.9997489667277377
0.9997514590315207
0.99975394698639
0.9997564256771881
0.9997588901159686
0.999761335256887
0.9997637560122502
0.9997661472696869
0.9997685039104013
0.9997708208284481
0.9997730929509645
0.9997753152592804
0.9997774828108197
0.9997795907616875
0.9997816343898385
0.9997836091187029
0.9997855105411407
0.9997873344435919
0.9997890768302684
0.9997907339472568
0.99979230230636
0.9997937787085422
0.9997951602668101
0.9997964444283955
0.9997976289960788
0.9997987121485344
0.9997996924595529
0.999800568916053
0.9998013409347588
0.9998020083774944
0.9998025715650143
0.9998030312893631
0.999803388824739
0.9998036459369082
0.9998038048911967
0.9998038684591771
0.9998038399241248
0.9998037230854293
0.9998035222620767
0.9998032422954263
0.9998028885514196
0.9998024669224337
0.9998019838288579
0.9998014462204683
0.9998008615774385
0.9998002379107778
0.9997995837615807
0.9997989081978366
0.9997982208059842
0.9997975316758883
0.9997968513762876
0.9997961909161058
0.9997955616570046
0.999794975212134
0.9997944432849948
0.9997939775822762
0.9997935891327869
0.9997932894098247
0.9997930892235783
0.9997930025400866
0.999793041272507
0
0
0.9996943345747977
0.9996942169233702
0.9996940095160505
0.999693721038532
0.999693362393648
0.9996929453697799
0.9996924812642398
0.9996919812682766
0.9996914563668985
0.9996909170754763
0.9996903734167721
0.999689834774252
0.9996893098283954
0.999688806539175
0.9996883321545798
0.9996878932294826
0.9996874956580459
0.999687144713827
0.9996868450930074
0.9996866009583163
0.9996864159823969
0.9996862933896268
0.9996862359955666
0.9996862462436963
0.9996863262391585
0.9996864777795188
0.9996867023824623
0.9996870013105855
0.9996873755933183
0.9996878260461908
0.9996883532875324
0.9996889577528378
0.9996896397069026
0.9996903992539664
0.9996912363459617
0.9996921507891046
0.9996931422489189
0.9996942102539156
0.9996953541980123
0.9996965733419012
0.9996978668134444
0.999699233607288
0.9997006725837625
0.9997021824672645
0.9997037618441567
0.9997054091603844
0.9997071227188395
0.9997089006766456
0.9997107410424098
0.9997126416735832
0.9997146002739848
0.999716614391617
0.9997186814168202
0.9997207985808904
0.999722962955194
0.9997251714509049
0.9997274208193883
0.9997297076533432
0.9997320283887275
0.9997343793075654
0.9997367565416574
0.9997391560772768
0.9997415737608687
0.9997440053058159
0.9997464463002889
0.9997488922162241
0.9997513384194319
0.9997537801808652
0.9997562126890404
0.9997586310636156
0.9997610303701059
0.999763405635717
0.9997657518662622
0.9997680640641171
0.9997703372471624
0.9997725664686439
0.9997747468378725
0.9997768735416829
0.9997789418665446
0.9997809472212229
0.9997828851598666
0.999784751405398
0.9997865418730733
0.9997882526940592
0.9997898802389003
0.9997914211407014
0.9997928723178967
0.9997942309964332
0.9997954947312362
0.999796661426795
0.9997977293567504
0.9997986971823305
0.9997995639695472
0.9998003292050219
0.9998009928103858
0.9998015551551538
0.9998020170680672
0.9998023798468413
0.9998026452663619
0.9998028155853075
0.9998028935513031
0.9998028824046142
0.999802785880525
0.9998026082104451
0.9998023541218984
0.9998020288374222
0.9998016380724856
0.9998011880323635
0.9998006854079351
0.9998001373700681
0.9997995515621005
0.9997989360895673
0.9997982995064046
0.9997976507955747
0.9997969993405288
0.9997963548826371
0.9997957274700173
0.9997951273853534
0.9997945650427198
0.9997940508096235
0.9997935949967622
0.9997932076523384
0.9997928989143631
0.9997926790650042
0.9997925587439795
0.999792546604083
0
0
0.9996949795183018
0.9996947833787074
0.9996945183362631
0.9996941900507333
0.9996938069952666
0.9996933779757052
0.9996929121537671
0.9996924189640176
0.9996919076481661
0.9996913872256907
0.9996908663765643
0.9996903533191271
0.9996898557519786
0.9996893808156699
0.9996889350752918
0.9996885245230969
0.9996881545950785
0.9996878301950339
0.9996875557236573
0.9996873351107484
0.9996871718485588
0.999687069024979
0.999687029355632
0.9996870552144078
0.9996871486619523
0.9996873114719875
0.9996875451552485
0.9996878509811006
0.9996882299967795
0.9996886830444048
0.9996892107757775
0.999689813665162
0.9996904920200953
0.9996912459904392
0.9996920755757329
0.999692980631063
0.9996939608715109
0.9996950158753923
0.9996961450863469
0.9996973478144763
0.9996986232365929
0.9996999703957681
0.9997013882002267
0.999702875421778
0.9997044306938149
0.9997060525090681
0.9997077392171371
0.9997094890219778
0.9997112999793607
0.9997131699944757
0.9997150968196871
0.9997170780526032
0.9997191111344758
0.9997211933490632
0.9997233218219839
0.9997254935206836
0.9997277052550301
0.9997299536786567
0.9997322352910656
0.9997345464405948
0.9997368833282603
0.999739242012561
0.9997416184152592
0.9997440083282019
0.9997464074211893
0.9997488112509479
0.9997512152711979
0.9997536148438516
0.9997560052513301
0.9997583817100092
0.9997607393847636
0.9997630734046095
0.9997653788793871
0.9997676509174633
0.9997698846443853
0.9997720752224293
0.9997742178709601
0.999776307887526
0.9997783406695818
0.9997803117367382
0.9997822167534189
0.9997840515517984
0.9997858121548874
0.9997874947996218
0.9997890959598168
0.9997906123688212
0.9997920410417364
0.9997933792970277
0.9997946247773973
0.9997957754697451
0.999796829724108
0.999797786271406
0.999798644239911
0.9997994031702901
0.9998000630291665
0.9998006242210777
0.9998010875988159
0.9998014544720615
0.9998017266143353
0.9998019062682215
0.9998019961489216
0.9998019994461178
0.9998019198242466
0.9998017614211516
0.999801528845224
0.9998012271709691
0.9998008619330372
0.9998004391185392
0.999799965157512
0.9997994469111371
0.9997988916572564
0.9997983070721627
0.9997977012074535
0.9997970824606822
0.99979645953881
0.9997958414095156
0.9997952372373229
0.9997946563053225
0.9997941079363256
0.9997936013725779
0.9997931457127363
0.9997927498961959
0.9997924226020855
0.999792172251275
0.9997920073979739
0.999791933958923
0
0
0.9996956972210164
0.9996954175374804
0.9996950875303117
0.9996947113106462
0.9996942947725164
0.999693844442923
0.9996933676849962
0.9996928721380354
0.9996923654918618
0.9996918553938813
0.9996913492758595
0.9996908542668456
0.9996903771230318
0.9996899241750944
0.9996895013004691
0.9996891139137624
0.9996887669687405
0.9996884649695614
0.9996882119887467
0.9996880116893233
0.9996878673491445
0.9996877818862635
0.9996877578842934
0.9996877976171299
0.9996879030724339
0.9996880759736487
0.9996883178002498
0.9996886298062085
0.9996890130365244
0.9996894683419371
0.9996899963917507
0.9996905976849497
0.9996912725595847
0.9996920212006379
0.99969284364637
0.9996937397933646
0.9996947094002908
0.9996957520905964
0.9996968673541512
0.9996980545480584
0.9996993128966426
0.99970064149083
0.9997020392869299
0.9997035051050176
0.9997050376269266
0.9997066353940441
0.9997082968049107
0.9997100201128125
0.9997118034233599
0.9997136446922306
0.9997155417230761
0.9997174921657546
0.9997194935148843
0.9997215431088752
0.9997236381294335
0.9997257756016836
0.9997279523948956
0.9997301652239602
0.9997324106515967
0.9997346850914178
0.9997369848118396
0.9997393059409465
0.9997416444722929
0.9997439962717409
0.9997463570853058
0.9997487225480952
0.999751088194307
0.9997534494683432
0.9997558017370128
0.9997581403028444
0.99976046041847
0.9997627573020884
0.9997650261539488
0.9997672621738332
0.999769460579467
0.9997716166258163
0.9997737256251692
0.9997757829679442
0.999777784144107
0.9997797247651025
0.9997816005861796
0.9997834075289795
0.999785141704264
0.9997867994346271
0.9997883772770592
0.9997898720451892
0.9997912808310789
0.9997926010263782
0.9997938303427225
0.9997949668311815
0.999796008900651
0.9997969553350085
0.9997978053089357
0.9997985584022578
0.9997992146127231
0.999799774367091
0.9998002385305046
0.9998006084140242
0.9998008857803453
0.9998010728476034
0.9998011722913202
0.9998011872444142
0.9998011212953469
0.9998009784843248
0.9998007632976149
0.9998004806598502
0.9998001359243106
0.9997997348609484
0.999799283641968
0.999798788824473
0.9997982573297328
0.9997976964183103
0.9997971136600501
0.9997965168971694
0.9997959141996047
0.9997953138120003
0.9997947240898343
0.9997941534198701
0.9997936101386661
0.9997931024523229
0.9997926383366418
0.999792225501534
0.9997918712923517
0.9997915823239096
0.9997913650080741
0.9997912237712812
0
0
0.999696465912227
0.9996960998591724
0.9996957004431108
0.9996952704423281
0.9996948135196341
0.9996943345861851
0.999693839304759
0.9996933337339262
0.9996928241927298
0.9996923170587748
0.9996918186224941
0.9996913350005217
0.9996908720530618
0.9996904353290184
0.9996900300308774
0.9996896609942183
0.9996893326795762
0.9996890491743695
0.9996888142016231
0.9996886311334917
0.9996885030079035
0.9996884325471309
0.999688422177098
0.9996884740467853
0.9996885900470563
0.9996887718286285
0.9996890208187876
0.999689338236795
0.9996897251077578
0.9996901822750486
0.9996907104111359
0.9996913100269958
0.9996919814800188
0.9996927249806236
0.99969354059752
0.9996944282618526
0.9996953877701866
0.9996964187865698
0.9996975208436405
0.9996986933430154
0.9996999355549284
0.9997012466173512
0.9997026255345652
0.9997040711754082
0.999705582271165
0.9997071574133172
0.9997087950511196
0.9997104934892103
0.9997122508852168
0.9997140652475617
0.999715934433429
0.9997178561470769
0.9997198279384694
0.9997218472023937
0.9997239111780404
0.9997260169492039
0.9997281614450746
0.9997303414417742
0.9997325535646051
0.99973479429115
0.9997370599551948
0.9997393467515974
0.9997416507420669
0.9997439678619725
0.9997462939281334
0.9997486246476894
0.9997509556280109
0.9997532823877111
0.9997556003687255
0.9997579049494925
0.9997601914591868
0.9997624551930208
0.999764691428552
0.9997668954429829
0.9997690625313767
0.9997711880257483
0.9997732673149379
0.9997752958651985
0.9997772692413898
0.9997791831286744
0.9997810333546077
0.9997828159114782
0.9997845269787803
0.999786162945661
0.9997877204332026
0.9997891963163745
0.9997905877455087
0.99979189216712
0.9997931073439342
0.9997942313739344
0.9997952627083063
0.9997962001680968
0.9997970429594805
0.9997977906874652
0.9997984433679633
0.9997990014380627
0.9997994657644772
0.9997998376500169
0.9998001188380944
0.9998003115151398
0.9998004183109519
0.9998004422968794
0.9998003869818768
0.9998002563063092
0.999800054633537
0.9997997867391106
0.9997994577975324
0.9997990733663046
0.9997986393670958
0.9997981620635465
0.9997976480352582
0.9997971041472025
0.9997965375139973
0.9997959554579894
0.9997953654597191
0.9997947750999456
0.9997941919942156
0.9997936237185452
0.9997930777246102
0.9997925612620733
0.9997920812760646
0.9997916442888888
0.9997912563446536
0.9997909226914206
0.9997906476843297
0.9997904345387718
0
0
0.9996972662679943
0.9996968130885484
0.9996963417784852
0.9996958539220044
0.9996953516070004
0.9996948383904147
0.9996943184530627
0.9996937965467412
0.9996932777528154
0.9996927673003104
0.9996922704453276
0.9996917923677405
0.9996913380884861
0.999690912413619
0.9996905198927031
0.9996901647918508
0.9996898510788745
0.9996895824177592
0.9996893621699939
0.9996891934012524
0.9996890788916657
0.9996890211485313
0.999689022420306
0.9996890847112831
0.9996892097961919
0.9996893992344356
0.9996896543834961
0.9996899764114409
0.9996903663082298
0.9996908248959034
0.9996913528374439
0.9996919506444814
0.9996926186837063
0.999693357182189
0.9996941662315185
0.9996950457909829
0.9996959956897187
0.9996970156280698
0.9996981051780892
0.9996992637834252
0.9997004907585356
0.9997017852874639
0.9997031464221265
0.9997045730803366
0.9997060640435151
0.9997076179543118
0.999709233314076
0.9997109084804041
0.9997126416646958
0.9997144309299385
0.9997162741886578
0.9997181692012338
0.9997201135745338
0.999722104761042
0.9997241400584445
0.9997262166098383
0.9997283314045201
0.9997304812795192
0.9997326629218242
0.9997348728714641
0.9997371075253878
0.999739363142285
0.9997416358483044
0.9997439216437896
0.9997462164109786
0.9997485159227829
0.9997508158525832
0.9997531117851287
0.999755399228484
0.9997576736270789
0.9997599303757991
0.9997621648351442
0.9997643723473816
0.9997665482536998
0.9997686879122671
0.9997707867171726
0.999772840118146
0.9997748436409962
0.9997767929086504
0.9997786836627057
0.999780511785365
0.9997822733216283
0.9997839645016087
0.9997855817628162
0.9997871217722716
0.9997885814482684
0.9997899579816482
0.9997912488563886
0.9997924518693727
0.9997935651491361
0.999794587173467
0.9997955167856601
0.9997963532093175
0.9997970960615014
0.9997977453641677
0.9997983015536913
0.9997987654884447
0.9997991384542652
0.9997994221677949
0.9997996187775487
0.9997997308627277
0.9997997614296256
0.9997997139056736
0.9997995921309494
0.9997994003471768
0.9997991431840081
0.9997988256425496
0.9997984530758247
0.9997980311660173
0.9997975658980494
0.9997970635291847
0.9997965305539496
0.999795973663817
0.9997953997010246
0.9997948156059777
0.9997942283570718
0.9997936449028121
0.9997930720883713
0.9997925165708117
0.9997919847299348
0.9997914825719788
0.9997910155949773
0.9997905886437192
0.9997902058319151
0.9997898699476078
0.9997895830850005
0
0
0.9996980815162815
0.9996975417963913
0.9996969974626295
0.9996964491925431
0.99969589795195
0.999695346128676
0.9996947967165534
0.9996942533516202
0.9996937200199718
0.999693200939853
0.9996927004322409
0.9996922228179378
0.9996917723402925
0.9996913531065152
0.9996909690429254
0.9996906238645538
0.9996903210553666
0.9996900638572828
0.9996898552660716
0.9996896980326507
0.9996895946681186
0.9996895474515706
0.9996895584395715
0.9996896294767025
0.9996897622064003
0.9996899580818223
0.9996902183762145
0.9996905441927157
0.9996909364732479
0.9996913960065662
0.9996919234352192
0.9996925192615806
0.9996931838527736
0.9996939174446944
0.9996947201449993
0.9996955919352897
0.999696532672382
0.9996975420889115
0.9996986197931701
0.9996997652684332
0.9997009778716807
0.9997022568319658
0.9997036012483398
0.9997050100875932
0.9997064821817062
0.999708016225271
0.9997096107727839
0.9997112642360569
0.9997129748816505
0.9997147408285644
0.9997165600460983
0.9997184303521034
0.9997203494115441
0.9997223147355733
0.9997243236810516
0.9997263734507035
0.9997284610938377
0.9997305835078172
0.9997327374402085
0.9997349194917865
0.9997371261203187
0.9997393536452998
0.9997415982535572
0.9997438560058811
0.9997461228446024
0.9997483946022515
0.9997506670112193
0.999752935714532
0.9997551962776577
0.9997574442014263
0.9997596749359817
0.9997618838958156
0.9997640664757923
0.999766218068183
0.99976833408061
0.9997704099548864
0.9997724411866349
0.9997744233456413
0.9997763520968129
0.9997782232216612
0.9997800326401665
0.9997817764329122
0.9997834508633383
0.9997850523999622
0.9997865777384229
0.9997880238231646
0.9997893878686084
0.9997906673796217
0.9997918601711283
0.9997929643866614
0.9997939785157177
0.999794901409702
0.9997957322963514
0.9997964707924241
0.9997971169145734
0.9997976710882003
0.9997981341542378
0.9997985073736744
0.9997987924298004
0.999798991427999
0.9997991068930943
0.9997991417640776
0.9997990993862473
0.9997989835005646
0.9997987982302484
0.9997985480643836
0.9997982378385123
0.99979787271191
0.9997974581414327
0.999796999851504
0.9997965038000302
0.9997959761397118
0.9997954231743754
0.9997948513096333
0.9997942669976662
0.9997936766757284
0.9997930866972213
0.9997925032567492
0.9997919323064448
0.9997913794613913
0.9997908498923537
0.9997903482253487
0.9997898783150966
0.9997894432842989
0.9997890448004246
0.9997886840646609
0
0
0.9996988971126741
0.999698272269473
0.9996976547897968
0.9996970447090398
0.9996964421381972
0.9996958485286261
0.999695265922963
0.9996946969943485
0.999694144790528
0.9996936126422342
0.9996931040301958
0.9996926224964873
0.9996921715694096
0.9996917547045022
0.9996913752397357
0.9996910363631242
0.9996907410897875
0.999690492247422
0.9996902924682383
0.9996901441861099
0.9996900496374824
0.9996900108652279
0.9996900297243297
0.9996901078889004
0.9996902468597422
0.9996904479722262
0.9996907124039146
0.9996910411819
0.9996914351894481
0.9996918951720424
0.9996924217425283
0.9996930153855352
0.9996936764609466
0.9996944052066441
0.999695201740339
0.9996960660607515
0.9996969980479711
0.9996979974632756
0.9996990639482608
0.999700197023563
0.9997013960870306
0.9997026604116336
0.9997039891429705
0.9997053812966565
0.9997068357554583
0.9997083512664502
0.999709926438063
0.9997115597372948
0.9997132494869504
0.9997149938631767
0.9997167908931655
0.9997186384532755
0.9997205342674556
0.9997224759062046
0.9997244607859622
0.999726486169152
0.9997285491647702
0.9997306467297431
0.9997327756709371
0.9997349326480426
0.999737114177214
0.9997393166356695
0.9997415362671477
0.9997437691883965
0.9997460113965976
0.999748258777879
0.9997505071168248
0.9997527521071086
0.9997549893631533
0.999757214432924
0.9997594228117463
0.9997616099572305
0.9997637713051875
0.9997659022865774
0.999767998345374
0.9997700549573452
0.9997720676496298
0.9997740320210621
0.999775943763116
0.9997777986813922
0.9997795927174962
0.9997813219711961
0.9997829827227048
0.9997845714549368
0.9997860848755776
0.9997875199387886
0.9997888738663836
0.9997901441682734
0.9997913286620311
0.9997924254913442
0.9997934331432238
0.999794350463741
0.999795176672163
0.9997959113732722
0.9997965545677663
0.9997971066605222
0.9997975684666682
0.9997979412152463
0.9997982265504479
0.9997984265302163
0.9997985436222291
0.9997985806970576
0.9997985410185367
0.9997984282311311
0.9997982463443348
0.9997979997138593
0.9997976930196159
0.9997973312401942
0.9997969196237914
0.999796463655213
0.999795969018806
0.9997954415568759
0.9997948872234325
0.999794312032722
0.9997937220022585
0.9997931230902077
0.9997925211262628
0.9997919217357837
0.9997913302558256
0.99979075164528
0.9997901903656936
0.9997896503015125
0.9997891345280119
0.9997886453685996
0.999788183667252
0.9997877499926004
0
0
0.9996997003857904
0.999698992347639
0.9996983023193515
0.9996976298694735
0.999696974461171
0.9996963368196287