# vtk DataFile Version 2.0
2D-ADE data file 
ASCII
DATASET RECTILINEAR_GRID
DIMENSIONS 128 128 1 
X_COORDINATES 128 int
0 1 2 3 4 5 6 7 8 9 10 11 12 13 14 15 16 17 18 19 20 21 22 23 24 25 26 27 28 29 30 31 32 33 34 35 36 37 38 39 40 41 42 43 44 45 46 47 48 49 50 51 52 53 54 55 56 57 58 59 60 61 62 63 64 65 66 67 68 69 70 71 72 73 74 75 76 77 78 79 80 81 82 83 84 85 86 87 88 89 90 91 92 93 94 95 96 97 98 99 100 101 102 103 104 105 106 107 108 109 110 111 112 113 114 115 116 117 118 119 120 121 122 123 124 125 126 127 
Y_COORDINATES 128 int
0 1 2 3 4 5 6 7 8 9 10 11 12 13 14 15 16 17 18 19 20 21 22 23 24 25 26 27 28 29 30 31 32 33 34 35 36 37 38 39 40 41 42 43 44 45 46 47 48 49 50 51 52 53 54 55 56 57 58 59 60 61 62 63 64 65 66 67 68 69 70 71 72 73 74 75 76 77 78 79 80 81 82 83 84 85 86 87 88 89 90 91 92 93 94 95 96 97 98 99 100 101 102 103 104 105 106 107 108 109 110 111 112 113 114 115 116 117 118 119 120 121 122 123 124 125 126 127 
Z_COORDINATES 1 int
0
POINT_DATA 16384
SCALARS density double
LOOKUP_TABLE default
0
0
0
0
0
0
0
0
0
0
0
0
0
0
0
0
0
0
0
0
0
0
0
0
0
0
0
0
0
0
0
0
0
0
0
0
0
0
0
0
0
0
0
0
0
0
0
0
0
0
0
0
0
0
0
0
0
0
0
0
0
0
0
0
0
0
0
0
0
0
0
0
0
0
0
0
0
0
0
0
0
0
0
0
0
0
0
0
0
0
0
0
0
0
0
0
0
0
0
0
0
0
0
0
0
0
0
0
0
0
0
0
0
0
0
0
0
0
0
0
0
0
0
0
0
0
0
0
0
0.9996876010403484
0.9996876490598525
0.9996875514840602
0.9996872627901033
0.9996867830811345
0.9996861486364443
0.9996853937214124
0.9996845475212491
0.9996836359514671
0.9996826822880454
0.9996817068494613
0.9996807272085733
0.9996797585361297
0.9996788139063901
0.9996779045440614
0.9996770400496736
0.9996762286024227
0.9996754771393803
0.9996747915128452
0.9996741766291871
0.9996736365714589
0.999673174707675
0.9996727937863609
0.9996724960208232
0.999672283163322
0.9996721565702025
0.9996721172588414
0.9996721659572126
0.9996723031467192
0.9996725290989147
0.9996728439066264
0.9996732475099848
0.9996737397177741
0.9996743202245305
0.9996749886237392
0.9996757444174934
0.9996765870229245
0.9996775157757292
0.9996785299310622
0.9996796286620885
0.9996808110564509
0.9996820761109131
0.9996834227244128
0.9996848496897794
0.9996863556843262
0.9996879392595612
0.9996895988302176
0.99969133266283
0.9996931388640549
0.9996950153689503
0.9996969599294048
0.9996989701029177
0.9997010432419214
0.9997031764838318
0.9997053667420132
0.9997076106978282
0.999709904793955
0.9997122452291262
0.9997146279544549
0.9997170486714938
0.999719502832169
0.9997219856407131
0.9997244920577215
0.9997270168064285
0.9997295543812935
0.9997320990589663
0.9997346449116913
0.9997371858231708
0.9997397155069132
0.9997422275270449
0.9997447153215576
0.9997471722279254
0.9997495915110177
0.9997519663931811
0.9997542900863678
0.9997565558261371
0.9997587569073451
0.9997608867213034
0.9997629387941752
0.9997649068263424
0.9997667847324695
0.999768566681959
0.9997702471395041
0.999771820905394
0.9997732831552715
0.9997746294789904
0.999775855918267
0.9997769590027875
0.9997779357844891
0.9997787838697064
0.9997795014489412
0.9997800873240077
0.9997805409323708
0.9997808623685094
0.9997810524022126
0.9997811124937308
0.9997810448058098
0.9997808522126389
0.9997805383058685
0.9997801073978755
0.9997795645225558
0.9997789154339918
0.9997781666034169
0.9997773252149849
0.9997763991609375
0.9997753970368292
0.999774328137558
0.9997732024550017
0.9997720306781203
0.9997708241963846
0.9997695951073026
0.9997683562286469
0.999767121115718
0.9997659040839414
0.9997647202333896
0.9997635854691929
0.9997625165079514
0.9997615308933515
0.9997606469365787
0.9997598834249497
0.9997592586981784
0.9997587907854034
0.9997584968376669
0.9997583866907712
0.9997584176442064
0.99975851869074
0
0
0.9996875451946701
0.9996875952480182
0.9996874931048695
0.9996872207027979
0.9996867972879626
0.999686239611734
0.9996855718623797
0.999684818428051
0.9996840023873167
0.9996831443113945
0.9996822625962937
0.9996813735343855
0.9996804914394329
0.9996796287961985
0.9996787964480638
0.9996780037727242
0.9996772588439524
0.999676568579377
0.9996759388753195
0.9996753747285154
0.9996748803453863
0.9996744592399261
0.9996741143211073
0.9996738479707777
0.9996736621127874
0.9996735582741781
0.9996735376390321
0.9996736010956646
0.9996737492776413
0.99967398259919
0.9996743012853955
0.9996747053976616
0.9996751948547711
0.9996757694499538
0.9996764288642551
0.9996771726765631
0.9996780003705547
0.9996789113388824
0.9996799048848386
0.9996809802217869
0.9996821364705823
0.9996833726552485
0.9996846876971196
0.9996860804076888
0.9996875494803756
0.9996890934814304
0.9996907108401771
0.9996923998388085
0.9996941586019248
0.9996959850860143
0.9996978770690715
0.9996998321405345
0.9997018476917289
0.9997039209069942
0.999706048755674
0.9997082279851288
0.9997104551149494
0.9997127264325107
0.9997150379900349
0.9997173856032855
0.9997197648520466
0.9997221710824847
0.9997245994115267
0.9997270447333275
0.9997295017279341
0.999731964872179
0.999734428452893
0.9997368865824204
0.9997393332164884
0.9997417621743797
0.9997441671614109
0.9997465417936163
0.9997488796245999
0.9997511741743993
0.9997534189602768
0.9997556075292349
0.9997577334921155
0.9997597905590417
0.9997617725760072
0.9997636735623333
0.9997654877487654
0.9997672096158833
0.9997688339325796
0.9997703557942527
0.9997717706604573
0.9997730743916508
0.9997742632847764
0.9997753341073408
0.999776284129739
0.9997771111555223
0.9997778135493964
0.9997783902626988
0.9997788408562088
0.9997791655201018
0.9997793650909889
0.9997794410659422
0.999779395613544
0.9997792315819667
0.9997789525042386
0.9997785626008155
0.9997780667797366
0.9997774706346133
0.9997767804408505
0.9997760031504644
0.9997751463860161
0.9997742184341163
0.9997732282390904
0.9997721853972897
0.9997711001525894
0.999769983393415
0.9997688466515536
0.9997677021024898
0.9997665625663127
0.9997654415066369
0.9997643530251968
0.9997633118460368
0.9997623332752905
0.9997614330851567
0.9997606273252193
0.9997599320367704
0.9997593629008686
0.999758933410898
0.9997586521738706
0.9997585179993618
0.9997585187064165
0.9997586190848919
0
0
0.9996876362548772
0.9996876930714628
0.9996875914023544
0.9996873335565291
0.9996869448971741
0.9996864377329877
0.999685832681388
0.9996851500430208
0.9996844093998495
0.9996836287651105
0.9996828247117514
0.9996820121383313
0.999681204305645
0.9996804129312482
0.9996796483146833
0.9996789194567555
0.9996782341819818
0.9996775992576264
0.9996770205058396
0.9996765029072705
0.999676050696082
0.9996756674466282
0.9996753561519061
0.999675119294314
0.9996749589090334
0.9996748766406426
0.9996748737932872
0.9996749513749827
0.999675110136336
0.9996753506042105
0.9996756731105898
0.999676077817101
0.9996765647354295
0.9996771337440362
0.9996777846013831
0.9996785169560428
0.999679330353875
0.9996802242426169
0.9996811979740555
0.9996822508040958
0.9996833818908984
0.9996845902913625
0.9996858749561248
0.9996872347233365
0.9996886683113798
0.9996901743107691
0.9996917511753998
0.9996933972133656
0.9996951105775177
0.9996968892559636
0.9996987310626818
0.999700633628437
0.9997025943921649
0.9997046105930052
0.9997066792631462
0.9997087972216404
0.9997109610693558
0.9997131671851995
0.9997154117237734
0.9997176906145788
0.9997199995629158
0.9997223340525678
0.9997246893504061
0.9997270605129719
0.9997294423951456
0.9997318296609332
0.9997342167964486
0.9997365981250793
0.9997389678248867
0.9997413199481788
0.9997436484432702
0.9997459471783262
0.9997482099672479
0.9997504305974604
0.9997526028595112
0.9997547205782875
0.9997567776457198
0.9997587680547332
0.99976068593427
0.9997625255851018
0.9997642815162266
0.9997659484815284
0.9997675215164744
0.9997689959745003
0.9997703675628524
0.9997716323775279
0.9997727869370792
0.9997738282149407
0.9997747536700631
0.9997755612755385
0.9997762495450444
0.9997768175568308
0.9997772649751446
0.9997775920688794
0.9997777997274142
0.9997778894735152
0.9997778634733586
0.9997777245436377
0.9997774761559128
0.9997771224382747
0.9997766681745764
0.9997761188014145
0.999775480403203
0.9997747597056048
0.9997739640677434
0.9997731014734883
0.9997721805222451
0.9997712104194906
0.9997702009673303
0.9997691625550087
0.9997681061491471
0.999767043282919
0.9997659860429569
0.9997649470502177
0.9997639394293598
0.9997629767586445
0.9997620730019868
0.9997612423768443
0.9997604991138623
0.999759856982884
0.9997593290780967
0.9997589266587995
0.9997586574092558
0.9997585196683052
0.9997585206392036
0.9997586508969257
0
0
0.9996879209838373
0.9996879616071582
0.9996878449172857
0.99968758660497
0.9996872111938224
0.9996867331561626
0.9996861700490235
0.9996855382540817
0.9996848544884473
0.9996841346021572
0.9996833932947733
0.9996826439450338
0.9996818986554046
0.9996811682635067
0.9996804623963
0.9996797895488879
0.9996791571758343
0.9996785717821651
0.999678039012438
0.9996775637364144
0.9996771501297848
0.9996768017492704
0.9996765216016358
0.9996763122068172
0.9996761756550852
0.9996761136586179
0.9996761275975578
0.9996762185610036
0.9996763873830496
0.9996766346743371
0.9996769608492384
0.999677366149118
0.9996778506617946
0.9996784143376108
0.9996790570022415
0.9996797783666128
0.9996805780340586
0.9996814555050606
0.9996824101796954
0.999683441358111
0.9996845482391512
0.9996857299174304
0.9996869853789822
0.9996883134957485
0.9996897130190523
0.9996911825722918
0.9996927206430017
0.9996943255745069
0.9996959955573105
0.9996977286204307
0.999699522622833
0.9997013752451455
0.9997032839818182
0.9997052461338923
0.9997072588025411
0.9997093188835305
0.9997114230627604
0.999713567813016
0.9997157493920843
0.9997179638423427
0.9997202069919657
0.9997224744578317
0.9997247616502625
0.9997270637796452
0.999729375865049
0.9997316927448572
0.9997340090895009
0.9997363194162638
0.9997386181062287
0.9997408994232871
0.999743157535242
0.9997453865368832
0.9997475804750193
0.9997497333753083
0.9997518392708176
0.9997538922321099
0.9997558863987481
0.999757816011964
0.9997596754483484
0.9997614592542627
0.9997631621808026
0.9997647792189746
0.9997663056348951
0.9997677370046537
0.999769069248634
0.9997702986649271
0.999771421961637
0.9997724362877205
0.9997733392621757
0.9997741290012556
0.9997748041435529
0.9997753638726767
0.9997758079374234
0.9997761366692235
0.9997763509968354
0.9997764524581416
0.9997764432091049
0.999776326029822
0.9997761043278229
0.99977578213864
0.9997753641238858
0.999774855566937
0.9997742623665501
0.9997735910285495
0.9997728486559468
0.9997720429376453
0.9997711821360253
0.999770275073443
0.9997693311177367
0.9997683601664331
0.9997673726291636
0.9997663794068639
0.9997653918660668
0.9997644218057912
0.9997634814136356
0.9997625831966055
0.9997617398769415
0.9997609642439871
0.9997602690112269
0.9997596664369501
0.9997591678323932
0.9997587825560119
0.9997585193316383
0.9997583827699928
0.9997583891571249
0.9997585447093539
0
0
0.9996883982168306
0.999688382211371
0.9996882297218743
0.9996879562313029
0.9996875793623046
0.9996871139230551
0.9996865750627619
0.9996859770600806
0.999685334305619
0.9996846604698417
0.9996839684344025
0.9996832701355708
0.9996825764980738
0.9996818974031371
0.9996812417190553
0.9996806173486847
0.9996800312880588
0.9996794896919616
0.9996789979431805
0.9996785607216493
0.9996781820712453
0.9996778654634472
0.9996776138569475
0.9996774297530552
0.999677315246436
0.9996772720714147
0.999677301643649
0.9996774050975441
0.9996775833193343
0.99967783697625
0.9996781665417571
0.9996785723172943
0.9996790544505267
0.999679612950526
0.9996802476999157
0.999680958464374
0.9996817448995374
0.9996826065556745
0.9996835428801903
0.9996845532182991
0.9996856368119351
0.9996867927972185
0.9996880202005489
0.9996893179336268
0.9996906847874808
0.9996921194257784
0.9996936203775134
0.9996951860293164
0.9996968146174973
0.9996985042200492
0.9997002527487227
0.9997020579413868
0.9997039173547917
0.999705828357924
0.9997077881260872
0.999709793635867
0.9997118416611173
0.9997139287701131
0.9997160513239967
0.9997182054766403
0.999720387176052
0.9997225921674132
0.9997248159978679
0.9997270540231191
0.9997293014159389
0.9997315531766118
0.9997338041453884
0.9997360490169408
0.999738282356862
0.9997404986201539
0.9997426921717231
0.9997448573087717
0.9997469882850704
0.999749079336953
0.9997511247109763
0.9997531186930375
0.999755055638858
0.9997569300055713
0.999758736384291
0.9997604695333567
0.999762124412099
0.999763696214792
0.9997651804046117
0.9997665727472367
0.9997678693439144
0.9997690666636093
0.9997701615740612
0.9997711513713795
0.9997720338080185
0.9997728071187828
0.9997734700447475
0.9997740218547757
0.9997744623645721
0.9997747919530207
0.9997750115757958
0.9997751227760735
0.9997751276924058
0.9997750290636603
0.9997748302311724
0.9997745351380802
0.9997741483260744
0.9997736749295908
0.9997731206677338
0.9997724918339941
0.9997717952840555
0.9997710384217261
0.9997702291832148
0.9997693760196337
0.9997684878776882
0.9997675741780405
0.9997666447908424
0.9997657100071923
0.9997647805045773
0.999763867302521
0.9997629817065595
0.9997621352362009
0.9997613395297849
0.9997606061892484
0.9997599466141842
0.9997593717763363
0.9997588920886809
0.9997585166660348
0.999758254969743
0.9997581153684315
0.9997581126395148
0.9997582581762334
0
0
0.9996890326881198
0.9996889391989093
0.9996887343484935
0.9996884287718284
0.9996880355155096
0.9996875677683069
0.9996870383271036
0.9996864596407234
0.9996858439505668
0.9996852030354636
0.9996845481500927
0.9996838898268212
0.9996832377966767
0.9996826009589508
0.9996819873809656
0.9996814043142438
0.9996808582298706
0.9996803548648581
0.9996798992735608
0.9996794958813844
0.9996791485387252
0.9996788605739426
0.9996786348439198
0.9996784737818756
0.9996783794417156
0.9996783535390068
0.9996783974881672
0.9996785124361549
0.999678699292421
0.999678958755507
0.999679291336145
0.9996796973772708
0.9996801770708686
0.9996807304720586
0.9996813575103792
0.9996820579986709
0.999682831639529
0.9996836780297209
0.9996845966625503
0.9996855869285395
0.999686648114437
0.9996877794008904
0.999688979858808
0.9996902484447249
0.9996915839952148
0.999692985220645
0.9996944506983106
0.999695978865242
0.9996975680107307
0.9996992162688396
0.9997009216109608
0.9997026818386624
0.9997044945769046
0.9997063572678335
0.9997082671652587
0.9997102213299814
0.9997122166260993
0.9997142497184326
0.9997163170711834
0.9997184149479674
0.9997205394133187
0.9997226863357687
0.9997248513926117
0.9997270300764167
0.9997292177033748
0.9997314094235219
0.9997336002329034
0.9997357849876664
0.9997379584201376
0.9997401151568237
0.9997422497383534
0.9997443566412592
0.9997464303015854
0.9997484651401571
0.9997504555894764
0.9997523961220215
0.9997542812798756
0.9997561057054217
0.9997578641729902
0.9997595516211504
0.9997611631855069
0.999762694231659
0.9997641403881581
0.9997654975790975
0.9997667620561618
0.9997679304297562
0.9997689996990511
0.9997699672805607
0.9997708310351128
0.9997715892928497
0.9997722408761504
0.9997727851201504
0.9997732218907982
0.9997735516001832
0.9997737752191319
0.9997738942868625
0.9997739109177809
0.9997738278052726
0.9997736482226375
0.9997733760211012
0.9997730156251116
0.9997725720249008
0.9997720507665734
0.9997714579397113
0.9997708001627557
0.9997700845661087
0.9997693187731239
0.9997685108787724
0.9997676694259384
0.9997668033787425
0.9997659220922889
0.9997650352776156
0.9997641529609217
0.9997632854343785
0.9997624431946777
0.9997616368646127
0.9997608771058734
0.9997601745082471
0.9997595394539208
0.9997589819147223
0.9997585115127829
0.9997581373297222
0.9997578688676679
0.9997577158160836
0.9997576901267327
0.9997578016995973
0
0
0.9996897918124804
0.9996896094633364
0.9996893390139245
0.9996889875579341
0.9996885653321638
0.9996880826754734
0.9996875501253202
0.9996869782921408
0.9996863775797549
0.9996857581154596
0.9996851296230297
0.9996845012909046
0.9996838817027212
0.9996832787845422
0.9996826997809556
0.9996821512567686
0.999681639115752
0.9996811686295087
0.9996807444734205
0.9996803707673843
0.9996800511184386
0.9996797886638913
0.9996795861134047
0.9996794457896261
0.9996793696663843
0.9996793594044574
0.9996794163843005
0.9996795417359844
0.9996797363659489
0.9996800009809299
0.999680336108796
0.9996807421167022
0.9996812192263714
0.9996817675269356
0.9996823869851919
0.999683077453702
0.9996838386766285
0.999684670293724
0.9996855718423877
0.9996865427581915
0.9996875823738127
0.9996886899167505
0.9996898645057849
0.9996911051465306
0.9996924107260674
0.9996937800069712
0.99969521162075
0.9996967040609781
0.9996982556761591
0.9996998646625828
0.9997015290572223
0.9997032467309183
0.999705015381905
0.9997068325299057
0.9997086955108662
0.9997106014725277
0.9997125473709172
0.9997145299679351
0.9997165458301193
0.9997185913287434
0.999720662641326
0.9997227557546795
0.9997248664695739
0.9997269904071063
0.999729123016847
0.9997312595868098
0.999733395255305
0.9997355250246832
0.9997376437769963
0.9997397462915516
0.9997418272643503
0.9997438813293337
0.9997459030814064
0.9997478871010991
0.9997498279808115
0.9997517203524442
0.9997535589163259
0.9997553384711908
0.9997570539450861
0.999758700426917
0.9997602731984759
0.999761767766632
0.9997631798955073
0.9997645056382836
0.9997657413684613
0.999766883810196
0.9997679300675472
0.9997688776522528
0.9997697245098931
0.9997704690440683
0.9997711101384935
0.999771647176662
0.9997720800590357
0.9997724092174554
0.9997726356267943
0.9997727608136064
0.9997727868618592
0.9997727164155634
0.9997725526784653
0.9997722994106726
0.999771960922431
0.999771542064975
0.9997710482187073
0.9997704852786292
0.9997698596372784
0.999769178165042
0.9997684481880165
0.9997676774631252
0.9997668741504565
0.9997660467822819
0.9997652042283652
0.9997643556563511
0.9997635104861794
0.9997626783373516
0.99976186896863
0.9997610922051343
0.999760357853079
0.9997596756055637
0.9997590549664778
0.9997585051397266
0.999758035071394
0.99975765348883
0.9997573692156502
0.9997571912119644
0.9997571298055217
0.9997571924121332
0
0
0.9996906480358915
0.9996903697875484
0.9996900243494603
0.9996896169660167
0.9996891551655234
0.9996886467918941
0.9996881004214615
0.9996875248108249
0.9996869286905684
0.9996863206596299
0.999685709036899
0.9996851017663098
0.9996845063346452
0.9996839297119546
0.9996833783212763
0.9996828580282714
0.9996823741448928
0.9996819314451209
0.9996815341891222
0.9996811861529955
0.9996808906613843
0.9996806506218748
0.9996804685594519
0.9996803466505088
0.9996802867552583
0.9996802904485345
0.9996803590482078
0.9996804936414481
0.9996806951082876
0.9996809641428573
0.9996813012718981
0.9996817068709715
0.999682181178081
0.9996827243051519
0.9996833362471337
0.9996840168891874
0.9996847660117651
0.9996855832940293
0.9996864683154576
0.9996874205560641
0.9996884393951101
0.999689524108716
0.9996906738662669
0.9996918877260029
0.9996931646297215
0.9996945033969402
0.9996959027184761
0.9996973611497745
0.9996988771039534
0.9997004488448732
0.9997020744802275
0.999703751954932
0.9997054790448211
0.9997072533509204
0.9997090722943083
0.9997109331118096
0.9997128328525614
0.9997147683756492
0.9997167363488746
0.9997187332488267
0.9997207553623123
0.9997227987892948
0.9997248594473962
0.9997269330780698
0.9997290152545015
0.999731101391304
0.9997331867560451
0.9997352664826376
0.9997373355866107
0.9997393889822446
0.9997414215015555
0.999743427915073
0.999745402954363
0.9997473413361794
0.9997492377881771
0.9997510870759988
0.999752884031655
0.9997546235829389
0.9997563007837734
0.9997579108451875
0.9997594491667778
0.9997609113683258
0.9997622933214045
0.9997635911806088
0.9997648014142373
0.9997659208340467
0.9997669466239061
0.9997678763669674
0.9997687080712074
0.9997694401929627
0.9997700716583501
0.9997706018822238
0.9997710307846114
0.9997713588043189
0.9997715869097168
0.9997717166064387
0.999771749942084
0.999771689507707
0.999771538436255
0.9997713003977939
0.9997709795917357
0.9997705807359514
0.9997701090530202
0.9997695702534967
0.9997689705164451
0.9997683164670819
0.999767615151694
0.9997668740095631
0.999766100841895
0.9997653037772191
0.999764491233063
0.9997636718731847
0.9997628545597235
0.9997620482987771
0.9997612621798047
0.9997605053093205
0.9997597867392874
0.9997591153866549
0.9997584999725445
0.9997579489755519
0.9997574706378278
0.999757073021742
0.9997567641343846
0.9997565515937719
0.9997564440027813
0.9997564473302787
0
0
0.9996915768837169
0.9996911981722149
0.9996907715775175
0.9996903008643983
0.999689791089117
0.9996892482587464
0.9996886791258812
0.99968809073534
0.9996874903012283
0.9996868850177874
0.9996862819212413
0.9996856877948316
0.9996851090843132
0.99968455184102
0.9996840216845251
0.9996835237822419
0.9996830628438147
0.9996826431275853
0.9996822684549792
0.9996819422310674
0.9996816674688491
0.9996814468161807
0.9996812825834636
0.9996811767716817
0.9996811310995118
0.9996811470295103
0.9996812257924484
0.9996813684100518
0.9996815757154651
0.9996818483718316
0.9996821868884765
0.9996825916351509
0.9996830628539296
0.9996836006692587
0.9996842050958147
0.9996848760446837
0.9996856133275668
0.9996864166595232
0.9996872856599928
0.9996882198525944
0.9996892186634798
0.9996902814187122
0.9996914073404832
0.999692595542613
0.9996938450251771
0.9996951546686761
0.9996965232276205
0.9996979493239181
0.9996994314399668
0.9997009679118105
0.9997025569222866
0.9997041964944948
0.9997058844855419
0.9997076185808655
0.999709396289109
0.9997112149378239
0.999713071669997
0.9997149634416428
0.9997168870204717
0.9997188389858513
0.999720815730075
0.9997228134611258
0.999724828206948
0.9997268558213824
0.9997288919917809
0.9997309322483978
0.999732971975583
0.9997350064248227
0.9997370307296325
0.9997390399223023
0.999741028952481
0.9997429927075394
0.9997449260346742
0.9997468237646392
0.9997486807370345
0.9997504918269756
0.9997522519730535
0.999753956206345
0.9997555996803533
0.9997571777015898
0.999758685760647
0.9997601195634322
0.9997614750623957
0.9997627484873806
0.9997639363759275
0.999765035602637
0.9997660434074253
0.9997669574222752
0.9997677756963368
0.9997684967189803
0.9997691194407035
0.9997696432915151
0.9997700681967472
0.9997703945899542
0.9997706234229222
0.9997707561724879
0.9997707948442616
0.9997707419730129
0.9997706006198762
0.9997703743661909
0.9997700673041896
0.9997696840243874
0.9997692295999289
0.999768709567744
0.9997681299067805
0.9997674970131286
0.9997668176722455
0.9997660990280112
0.9997653485487191
0.9997645739895876
0.9997637833516769
0.999762984836646
0.9997621867974266
0.999761397684217
0.9997606259855593
0.9997598801649358
0.9997591685974061
0.9997584995060989
0.9997578809072627
0.9997573205754342
0.9997568260247427
0.9997564044794663
0.9997560630135301
0.9997558081045252
0.9997556464054949
0.9997555827516315
0
0
0.9996925562638793
0.9996920748987465
0.999691563265377
0.9996910237814407
0.9996904596641764
0.9996898754097051
0.9996892761357884
0.9996886674212404
0.9996880551052926
0.9996874450989498
0.9996868432625035
0.9996862553023235
0.9996856866891586
0.9996851426003495
0.9996846278778302
0.9996841470030459
0.9996837040851143
0.9996833028598329
0.9996829466965497
0.9996826386116353
0.9996823812859451
0.9996821770853911
0.9996820280827816
0.9996819360806136
0.9996819026334356
0.9996819290698183
0.9996820165129162
0.9996821658998937
0.9996823779994375
0.9996826534277731
0.9996829926625652
0.9996833960552054
0.9996838638409736
0.9996843961476144
0.999684993001899
0.999685654334718
0.9996863799843418
0.9996871696983844
0.9996880231341563
0.9996889398579225
0.9996899193427985
0.9996909609657769
0.9996920640036424
0.9996932276282562
0.9996944509009951
0.999695732766799
0.9996970720476421
0.9996984674358549
0.9996999174871457
0.9997014206137169
0.9997029750773523
0.9997045789828487
0.99970623027169
0.9997079267163106
0.9997096659148725
0.9997114452868757
0.9997132620695423
0.9997151133152689
0.9997169958901092
0.9997189064735431
0.9997208415595096
0.9997227974589241
0.999724770303674
0.9997267560522624
0.9997287504970972
0.999730749273568
0.9997327478708812
0.9997347416447563
0.9997367258319528
0.9997386955666615
0.9997406458987196
0.9997425718136255
0.999744468254288
0.9997463301444265
0.9997481524135323
0.9997499300232353
0.9997516579949679
0.9997533314387103
0.9997549455826703
0.9997564958036309
0.9997579776578026
0.9997593869118464
0.9997607195739018
0.9997619719242422
0.9997631405453836
0.9997642223512386
0.9997652146151589
0.9997661149964394
0.9997669215651465
0.999767632824853
0.999768247733183
0.9997687657197563
0.9997691867015048
0.9997695110949762
0.9997697398256623
0.9997698743340198
0.9997699165782811
0.9997698690337936
0.9997697346890395
0.9997695170381291
0.9997692200699948
0.9997688482541043
0.9997684065229677
0.9997679002512747
0.9997673352319493
0.9997667176489371
0.999766054046988
0.9997653512981867
0.9997646165654187
0.9997638572624576
0.9997630810108223
0.9997622955929485
0.9997615089018287
0.9997607288871085
0.9997599634983919
0.9997592206256314
0.9997585080392455
0.9997578333334083
0.9997572038736732
0.9997566267526492
0.9997561087649869
0.9997556563210064
0.9997552754961504
0.9997549717843317
0.9997547501946622
0.9997546144427378
0
0
0.9996935666958097
0.9996929821148816
0.999692383142148
0.9996917711286523
0.9996911479617101
0.9996905168156635
0.999689881450568
0.9996892461816025
0.9996886156137621
0.99968799450634
0.9996873876470436
0.9996867997495643
0.9996862353757163
0.9996856988768901
0.9996851943509245
0.9996847256143028
0.9996842961857445
0.9996839092801273
0.9996835678100026
0.9996832743935287
0.999683031366402
0.9996828407972198
0.9996827045043964
0.999682624074435
0.9996826008801012
0.9996826360986316
0.9996827307288558
0.9996828856075721
0.9996831014242916
0.9996833787348224
0.9996837179729762
0.999684119460946
0.9996845834177484
0.9996851099663244
0.9996856991387733
0.9996863508803217
0.9996870650515728
0.9996878414296316
0.9996886797076974
0.9996895794937105
0.9996905403076868
0.9996915615783023
0.9996926426383992
0.9996937827199556
0.9996949809482248
0.9996962363355566
0.9996975477746394
0.999698914031651
0.9997003337390931
0.9997018053887585
0.9997033273246506
0.9997048977362643
0.9997065146520834
0.9997081759336833
0.9997098792703042
0.9997116221742711
0.9997134019771442
0.9997152158269417
0.999717060686352
0.9997189333322352
0.9997208303563478
0.99972274816756
0.9997246829955102
0.9997266308959192
0.9997285877575265
0.9997305493108131
0.99973251113848
0.999734468687797
0.9997364172847732
0.999738352150219
0.9997402684176324
0.9997421611529151
0.9997440253758325
0.9997458560831598
0.9997476482734058
0.9997493969729809
0.9997510972636828
0.9997527443112972
0.9997543333951613
0.999755859938422
0.9997573195388193
0.9997587079996649
0.9997600213608362
0.9997612559294075
0.9997624083097348
0.9997634754325816
0.999764454583112
0.9997653434273214
0.9997661400367549
0.9997668429110836
0.9997674509984266
0.9997679637130078
0.9997683809500932
0.9997687030978228
0.9997689310459569
0.9997690661911961
0.9997691104391633
0.9997690662027653
0.9997689363970989
0.9997687244306632
0.9997684341931259
0.9997680700394319
0.999767636770568
0.999767139610789
0.9997665841816459
0.9997659764726243
0.9997653228087208
0.9997646298147507
0.9997639043766764
0.9997631535996985
0.9997623847634071
0.9997616052737935
0.9997608226124588
0.9997600442828957
0.9997592777548323
0.9997585304072306
0.9997578094709415
0.9997571219730007
0.9997564746838584
0.9997558740609559
0.9997553262077231
0.9997548367973599
0.999754410998022
0.9997540533784165
0.9997537677127932
0.999753556745823
0
0
0.9996945910364183
0.9996939037151457
0.9996932162880183
0.9996925293269419
0.9996918436918583
0.999691161461623
0.9996904852855466
0.9996898183732393
0.9996891642474711
0.9996885266411413
0.9996879093678909
0.9996873162312004
0.9996867509496451
0.9996862170996794
0.9996857180729458
0.9996852570470572
0.9996848369666819
0.9996844605342755
0.9996841302076953
0.9996838482039514
0.9996836165068749
0.9996834368783049
0.9996833108709273
0.9996832398427172
0.9996832249714955
0.9996832672698327
0.9996833675990927
0.9996835266830388
0.999683745120023
0.9996840233943031
0.999684361885664
0.9996847608779678
0.999685220565921
0.9996857410607183
0.9996863223939463
0.999686964520409
0.99968766731933
0.9996884305945911
0.9996892540735071
0.9996901374047906
0.9996910801552529
0.9996920818058628
0.9996931417467613
0.9996942592718241
0.9996954335724076
0.9996966637308468
0.9996979487133715
0.9996992873629869
0.9997006783920169
0.9997021203748272
0.9997036117404678
0.9997051507657122
0.9997067355682758
0.9997083641006587
0.9997100341444256
0.999711743305342
0.999713489009202
0.9997152684987425
0.9997170788315042
0.9997189168789936
0.9997207793270361
0.9997226626776303
0.9997245632522137
0.9997264771966072
0.9997284004875578
0.9997303289410941
0.9997322582226271
0.999734183858951
0.9997361012520684
0.9997380056949453
0.9997398923890991
0.9997417564640596
0.9997435929986034
0.9997453970437115
0.9997471636471393
0.9997488878794815
0.9997505648615819
0.9997521897931132
0.9997537579821426
0.9997552648754419
0.9997567060893451
0.9997580774408339
0.9997593749786526
0.9997605950140814
0.999761734151156
0.9997627893159327
0.9997637577845963
0.9997646372099819
0.9997654256463404
0.9997661215719106
0.9997667239091678
0.9997672320423301
0.9997676458320507
0.9997679656268985
0.9997681922716387
0.9997683271119533
0.9997683719956918
0.9997683292703465
0.99976820177693
0.9997679928399943
0.9997677062540495
0.9997673462661769
0.9997669175551472
0.999766425206876
0.9997658746865723
0.9997652718074236
0.9997646226961944
0.9997639337555659
0.9997632116236206
0.9997624631302852
0.9997616952511332
0.9997609150584177
0.9997601296698937
0.9997593461954073
0.9997585716819464
0.9997578130576711
0.999757077075693
0.9997563702575515
0.9997556988382535
0.9997550687066589
0.9997544853411301
0.9997539537501478
0.9997534783478997
0.9997530628966098
0.9997527102232809
0.9997524223374636
0
0
0.9996956141045968
0.9996948251833194
0.9996940490647196
0.9996932857372381
0.9996925352518591
0.9996917988113148