# vtk DataFile Version 2.0
2D-ADE data file 
ASCII
DATASET RECTILINEAR_GRID
DIMENSIONS 128 128 1 
X_COORDINATES 128 int
0 1 2 3 4 5 6 7 8 9 10 11 12 13 14 15 16 17 18 19 20 21 22 23 24 25 26 27 28 29 30 31 32 33 34 35 36 37 38 39 40 41 42 43 44 45 46 47 48 49 50 51 52 53 54 55 56 57 58 59 60 61 62 63 64 65 66 67 68 69 70 71 72 73 74 75 76 77 78 79 80 81 82 83 84 85 86 87 88 89 90 91 92 93 94 95 96 97 98 99 100 101 102 103 104 105 106 107 108 109 110 111 112 113 114 115 116 117 118 119 120 121 122 123 124 125 126 127 
Y_COORDINATES 128 int
0 1 2 3 4 5 6 7 8 9 10 11 12 13 14 15 16 17 18 19 20 21 22 23 24 25 26 27 28 29 30 31 32 33 34 35 36 37 38 39 40 41 42 43 44 45 46 47 48 49 50 51 52 53 54 55 56 57 58 59 60 61 62 63 64 65 66 67 68 69 70 71 72 73 74 75 76 77 78 79 80 81 82 83 84 85 86 87 88 89 90 91 92 93 94 95 96 97 98 99 100 101 102 103 104 105 106 107 108 109 110 111 112 113 114 115 116 117 118 119 120 121 122 123 124 125 126 127 
Z_COORDINATES 1 int
0
POINT_DATA 16384
SCALARS density double
LOOKUP_TABLE default
0
0
0
0
0
0
0
0
0
0
0
0
0
0
0
0
0
0
0
0
0
0
0
0
0
0
0
0
0
0
0
0
0
0
0
0
0
0
0
0
0
0
0
0
0
0
0
0
0
0
0
0
0
0
0
0
0
0
0
0
0
0
0
0
0
0
0
0
0
0
0
0
0
0
0
0
0
0
0
0
0
0
0
0
0
0
0
0
0
0
0
0
0
0
0
0
0
0
0
0
0
0
0
0
0
0
0
0
0
0
0
0
0
0
0
0
0
0
0
0
0
0
0
0
0
0
0
0
0
0.9996875125305188
0.9996875799419617
0.9996874904064912
0.9996871875414242
0.9996866664498042
0.9996859654306328
0.9996851215593658
0.9996841669103099
0.9996831302412241
0.9996820376040282
0.9996809118841887
0.9996797729736283
0.9996786381111957
0.9996775221997244
0.9996764380661158
0.9996753967041561
0.9996744074968186
0.9996734784154744
0.9996726161968335
0.99967182650063
0.9996711140500788
0.9996704827568101
0.9996699358317972
0.9996694758836598
0.9996691050055172
0.9996688248514262
0.9996686367033039
0.9996685415291438
0.9996685400332314
0.9996686326990206
0.9996688198252454
0.9996691015558272
0.9996694779040634
0.9996699487715822
0.9996705139624966
0.9996711731931842
0.9996719260980794
0.9996727722318763
0.9996737110684859
0.9996747419971144
0.9996758643157944
0.9996770772226936
0.9996783798055228
0.999679771029347
0.9996812497231012
0.9996828145650991
0.9996844640678201
0.9996861965622529
0.9996880101820634
0.9996899028478523
0.9996918722517611
0.9996939158426745
0.9996960308122695
0.9996982140821447
0.9997004622922631
0.9997027717909299
0.9997051386265232
0.9997075585411729
0.9997100269665912
0.9997125390222301
0.9997150895159308
0.9997176729472212
0.9997202835133914
0.9997229151184628
0.999725561385147
0.9997282156698561
0.9997308710808256
0.9997335204993489
0.9997361566041301
0.9997387718987041
0.9997413587418597
0.9997439093809517
0.9997464159879783
0.9997488706982344
0.9997512656513564
0.9997535930344978
0.9997558451273849
0.9997580143489372
0.999760093305135
0.9997620748377665
0.9997639520736897
0.9997657184742044
0.9997673678841302
0.999768894580169
0.9997702933181343
0.9997715593786217
0.9997726886107206
0.9997736774733563
0.9997745230739113
0.9997752232037592
0.9997757763704198
0.9997761818260602
0.999776439592131
0.9997765504799672
0.9997765161072666
0.9997763389103929
0.9997760221525558
0.9997755699279649
0.9997749871621536
0.9997742796087363
0.9997734538429474
0.9997725172523874
0.9997714780254959
0.9997703451383156
0.9997691283402191
0.9997678381392966
0.999766485788166
0.9997650832709688
0.9997636432923114
0.9997621792688162
0.9997607053237011
0.9997592362844733
0.9997577876832529
0.999756375758855
0.9997550174548395
0.9997537304047694
0.9997525328907287
0.9997514437965115
0.9997504824413975
0.9997496681196989
0.9997490189083468
0.9997485516967506
0.9997482808822895
0.9997482101434397
0.9997482802787822
0.9997484062592226
0
0
0.9996874460256309
0.9996875132606142
0.9996874135466038
0.999687123431989
0.9996866606208377
0.9996860419197218
0.9996852930678257
0.9996844406217987
0.9996835100423063
0.9996825242269108
0.9996815037859034
0.9996804670679972
0.9996794302607631
0.9996784075305511
0.9996774112144055
0.9996764520056524
0.9996755391285992
0.9996746805008604
0.9996738828835673
0.9996731520185189
0.999672492752496
0.9996719091494995
0.9996714045916382
0.9996709818695005
0.9996706432626863
0.999670390611268
0.9996702253787825
0.9996701487074191
0.9996701614659214
0.9996702642907846
0.9996704576211953
0.9996707417282187
0.999671116738645
0.9996715826539352
0.9996721393646361
0.9996727866606795
0.9996735242378891
0.9996743517010869
0.9996752685640979
0.9996762742470137
0.9996773680710039
0.9996785492510062
0.9996798168865731
0.9996811699511844
0.9996826072802905
0.9996841275583813
0.9996857293053396
0.9996874108623413
0.9996891703775735
0.9996910057920056
0.9996929148254755
0.9996948949633162
0.9996969434437737
0.9996990572464269
0.9997012330818464
0.9997034673826884
0.9997057562964453
0.9997080956800313
0.9997104810963997
0.9997129078133536
0.9997153708047198
0.9997178647540113
0.9997203840607279
0.9997229228493784
0.9997254749813332
0.9997280340695528
0.9997305934962567
0.9997331464335164
0.9997356858667983
0.9997382046213796
0.9997406953915976
0.9997431507728034
0.9997455632959137
0.9997479254643662
0.9997502297933146
0.9997524688507992
0.999754635300669
0.9997567219469402
0.9997587217792991
0.9997606280193907
0.9997624341675615
0.9997641340496506
0.999765721863471
0.9997671922245597
0.999768540210823
0.9997697614056568
0.999770851939175
0.9997718085271615
0.9997726285074067
0.9997733098730857
0.9997738513029162
0.9997742521878119
0.9997745126538653
0.9997746335814646
0.9997746166204886
0.9997744642015036
0.999774179543022
0.9997737666548812
0.9997732303379446
0.9997725761803055
0.9997718105503371
0.9997709405869083
0.9997699741872235
0.9997689199927183
0.9997677873735548
0.9997665864122168
0.9997653278867485
0.9997640232540761
0.9997626846337951
0.9997613247925343
0.9997599571287624
0.9997585956571903
0.9997572549908879
0.999755950317295
0.9997546973640851
0.9997535123459812
0.9997524118726917
0.999751412759638
0.9997505317418343
0.9997497850654039
0.9997491879062307
0.9997487521568122
0.9997484830866298
0.9997483745701292
0.9997484045780912
0.9997485297742772
0
0
0.9996875362953082
0.9996876136263941
0.9996875136714721
0.9996872372858163
0.9996868106680444
0.9996862460794669
0.9996855654946706
0.9996847909746897
0.9996839440519284
0.9996830447005535
0.9996821114210226
0.9996811609326638
0.9996802081784394
0.9996792664059535
0.9996783472911779
0.9996774610609513
0.9996766166230977
0.9996758216958185
0.9996750829316864
0.9996744060336757
0.999673795862702
0.999673256536533
0.9996727915199651
0.9996724037065728
0.999672095492271
0.9996718688411781
0.9996717253441061
0.9996716662701797
0.9996716926119233
0.9996718051243036
0.9996720043580452
0.9996722906876849
0.9996726643346604
0.9996731253858671
0.9996736738079653
0.9996743094578391
0.999675032089478
0.999675841357653
0.9996767368186497
0.9996777179284019
0.9996787840382864
0.9996799343888937
0.999681168102029
0.9996824841712417
0.999683881451129
0.9996853586456936
0.9996869142959981
0.999688546767375
0.9996902542364364
0.9996920346781208
0.999693885853016
0.9996958052951831
0.9996977903007136
0.9996998379172258
0.9997019449345251
0.9997041078766159
0.9997063229952804
0.9997085862653862
0.9997108933821278
0.9997132397603311
0.9997156205360122
0.9997180305702856
0.9997204644557809
0.999722916525635
0.9997253808651805
0.9997278513263476
0.9997303215448666
0.9997327849602393
0.9997352348385067
0.9997376642977358
0.9997400663361974
0.9997424338630909
0.9997447597317368
0.9997470367750285
0.9997492578430013
0.9997514158422547
0.9997535037770215
0.9997555147915707
0.9997574422136787
0.9997592795988111
0.9997610207747086
0.9997626598859799
0.9997641914383721
0.9997656103422965
0.9997669119552756
0.9997680921228884
0.9997691472178859
0.9997700741770846
0.9997708705357405
0.9997715344590536
0.999772064770568
0.9997724609771867
0.9997727232906412
0.9997728526452303
0.9997728507117644
0.9997727199076344
0.9997724634030608
0.999772085123552
0.9997715897487509
0.9997709827078157
0.9997702701716282
0.999769459042085
0.9997685569388504
0.9997675721839054
0.9997665137843156
0.9997653914135429
0.999764215391681
0.9997629966647871
0.9997617467834162
0.9997604778800616
0.9997592026448705
0.9997579342983332
0.9997566865588982
0.9997554736004373
0.9997543099924526
0.9997532106134748
0.9997521905366141
0.9997512648319328
0.999750448231317
0.9997497545440901
0.9997491963286793
0.9997487835063129
0.999748521027599
0.9997484033353558
0.9997484337287811
0.999748598721633
0
0
0.999687840285438
0.999687905078558
0.9996877905165842
0.9996875131566987
0.9996871000677546
0.999686566569857
0.9996859316033656
0.9996852129881516
0.9996844291055602
0.9996835975162678
0.9996827346032793
0.9996818553462978
0.99968097334722
0.9996801008243703
0.9996792486590614
0.9996784264738334
0.9996776427283571
0.9996769048175673
0.9996762191696085
0.9996755913413646
0.9996750261095482
0.9996745275561547
0.9996740991475975
0.9996737438074537
0.9996734639826454
0.9996732617032918
0.9996731386362684
0.9996730961328464
0.9996731352705605
0.9996732568897028
0.999673461624641
0.999673749930366
0.9996741221044746
0.9996745783049905
0.9996751185642291
0.9996757427990949
0.9996764508180195
0.999677242324902
0.99967811692027
0.999679074099993
0.9996801132517732
0.9996812336497187
0.9996824344472259
0.9996837146684605
0.9996850731986576
0.9996865087735144
0.9996880199678946
0.9996896051841027
0.9996912626399458
0.9996929903568205
0.9996947861480446
0.9996966476076573
0.9996985720998947
0.999700556749558
0.9997025984334703
0.9997046937732161
0.999706839129362
0.9997090305973201
0.9997112640050412
0.9997135349126807
0.9997158386143966
0.9997181701423956
0.9997205242733642
0.9997228955373553
0.9997252782292482
0.9997276664227991
0.9997300539873611
0.9997324346072484
0.9997348018037742
0.9997371489598795
0.9997394693473338
0.9997417561563655
0.9997440025276486
0.9997462015864382
0.999748346478731
0.9997504304091788
0.9997524466805762
0.9997543887345974
0.9997562501935536
0.9997580249027948
0.9997597069734903
0.9997612908253803
0.9997627712291988
0.9997641433483428
0.9997654027794872
0.9997665455917056
0.9997675683638187
0.9997684682195517
0.9997692428602403
0.999769890594732
0.9997704103662604
0.9997708017760074
0.9997710651032139
0.9997712013216267
0.9997712121122436
0.9997710998722398
0.9997708677201388
0.9997705194972211
0.999770059765337
0.9997694938012239
0.999768827587586
0.9997680678011278
0.9997672217978628
0.9997662975959328
0.9997653038562745
0.9997642498613206
0.9997631454919741
0.9997620012028351
0.999760827995606
0.9997596373901845
0.999758441392574
0.9997572524577295
0.9997560834450221
0.9997549475630823
0.999753858299188
0.9997528293162475
0.9997518743068426
0.999751006796978
0.9997502399450132
0.9997495860661992
0.9997490560316611
0.9997486582165758
0.9997483999124767
0.9997482836329583
0.9997483253976738
0.9997485296654302
0
0
0.99968836452042
0.999688370893472
0.9996882185612372
0.9996879248237672
0.9996875097975988
0.9996869896283721
0.9996863809515424
0.9996856994359278
0.999684960972304
0.9996841807263438
0.9996833730528611
0.9996825513031355
0.9996817277363373
0.9996809134699214
0.9996801185035767
0.9996793517649916
0.999678621170501
0.9996779336953351
0.9996772954496191
0.9996767117554154
0.9996761872220672
0.9996757258186051
0.9996753309420704
0.9996750054813048
0.9996747518756608
0.9996745721686601
0.9996744680564069
0.9996744409309988
0.9996744919188986
0.9996746219146101
0.9996748316097034
0.9996751215175743
0.9996754919940304
0.9996759432540889
0.9996764753851177
0.9996770883566898
0.9996777820272977
0.9996785561482909
0.9996794103651897
0.9996803442167199
0.9996813571317312
0.9996824484243247
0.9996836172873587
0.9996848627846382
0.9996861838419633
0.9996875792373208
0.9996890475904033
0.9996905873517165
0.9996921967914667
0.9996938739884689
0.9996956168192712
0.9996974229477182
0.9996992898151458
0.9997012146314197
0.9997031943670016
0.9997052257462351
0.9997073052420359
0.999709429072148
0.9997115931971435
0.9997137933203065
0.9997160248895559
0.9997182831015157
0.9997205629078741
0.9997228590240943
0.9997251659405947
0.9997274779364167
0.9997297890954584
0.9997320933252494
0.9997343843783
0.9997366558759412
0.9997389013346456
0.9997411141946817
0.999743287851046
0.9997454156864612
0.9997474911063226
0.9997495075753374
0.9997514586556734
0.9997533380463097
0.9997551396233596
0.9997568574810112
0.9997584859728151
0.9997600197529272
0.9997614538170176
0.9997627835424244
0.9997640047272626
0.9997651136280576
0.9997661069956303
0.9997669821088172
0.999767736805787
0.9997683695125785
0.9997688792686661
0.9997692657492512
0.9997695292841469
0.9997696708730354
0.9997696921970615
0.9997695956266195
0.9997693842254014
0.9997690617506656
0.9997686326498791
0.9997681020537917
0.9997674757661786
0.9997667602503739
0.9997659626128899
0.9997650905842644
0.999764152497415
0.9997631572635889
0.9997621143460554
0.9997610337314226
0.9997599258983669
0.9997588017831528
0.9997576727411623
0.9997565505028706
0.9997554471217778
0.9997543749099751
0.9997533463591979
0.9997523740421868
0.9997514704853133
0.9997506479736923
0.9997499183503036
0.9997492927540071
0.9997487814593475
0.9997483930807477
0.9997481366099543
0.9997480196977746
0.999748058196929
0.9997482638051868
0
0
0.9996890726114714
0.999688995658865
0.9996887866779024
0.9996884579879923
0.9996880246968893
0.9996875015532399
0.9996869028684746
0.9996862424493598
0.9996855338969738
0.9996847903205578
0.9996840242808658
0.9996832475613772
0.9996824710735482
0.9996817048153539
0.9996809578652739
0.9996802383955314
0.9996795537082899
0.9996789102854546
0.9996783138453448
0.9996777694027361
0.9996772813299148
0.9996768534170679
0.9996764889303673
0.9996761906670961
0.9996759610070213
0.9996758019598969
0.999675715208677
0.9996757021485826
0.99967576392183
0.9996759014482971
0.9996761154520629
0.9996764064841548
0.9996767749415116
0.9996772210825307
0.9996777450392389
0.9996783468264697
0.9996790263481129
0.999679783400806
0.9996806176751626
0.9996815287548853
0.9996825161138823
0.999683579111706
0.9996847169874563
0.9996859288524437
0.9996872136817623
0.9996885703050553
0.9996899973966296
0.9996914934651786
0.999693056843283
0.9996946856769314
0.9996963779152345
0.9996981313005514
0.9996999433592135
0.9997018113930461
0.9997037324718656
0.9997057034271388
0.9997077208469833
0.999709781072665
0.9997118801967626
0.9997140140631441
0.9997161782688964
0.9997183681683259
0.9997205788791589
0.9997228052910144
0.9997250420762573
0.9997272837032589
0.9997295244521407
0.9997317584329795
0.9997339796065067
0.9997361818072296
0.9997383587689602
0.9997405041526147
0.999742611576226
0.999744674646972
0.9997466869951009
0.9997486423095007
0.9997505343747494
0.9997523571093274
0.9997541046047824
0.9997557711654863
0.9997573513487318
0.999758840004771
0.9997602323165233
0.9997615238385211
0.9997627105348272
0.99976378881548
0.9997647555712059
0.9997656082059831
0.9997663446672143
0.99976696347314
0.999767463737297
0.9997678451897059
0.9997681081946708
0.9997682537649452
0.9997682835722305
0.9997681999538449
0.9997680059156286
0.9997677051310113
0.9997673019363886
0.9997668013228262
0.9997662089243137
0.9997655310026381
0.9997647744291471
0.9997639466634825
0.9997630557295284
0.999762110188594
0.9997611191099329
0.9997600920384307
0.9997590389592794
0.9997579702589982
0.9997568966819772
0.999755829281237
0.9997547793622129
0.999753758416533
0.9997527780415625
0.9997518498414635
0.9997509853198615
0.9997501957463418
0.999749492000167
0.99974888435316
0.9997483825826042
0.9997479957697594
0.9997477336064865
0.9997476060263359
0.999747626328487
0.9997478055257878
0
0
0.9996899294902662
0.9996897551632122
0.9996894740964097
0.9996890947078442
0.9996886290615922
0.999688088978773
0.9996874864003243
0.9996868332253377
0.9996861411039907
0.9996854213611134
0.9996846848768285
0.9996839419410943
0.999683202177297
0.9996824744809226
0.9996817669905171
0.9996810870872702
0.9996804414145501
0.9996798359093721
0.999679275842529
0.9996787658645908
0.9996783100545684
0.9996779119694037
0.9996775746925897
0.9996773008811933
0.9996770928102613
0.9996769524143694
0.9996768813257262
0.9996768809089169
0.9996769522919402
0.9996770963937824
0.9996773139483427
0.9996776055250259
0.9996779715459185
0.9996784122998982
0.9996789279536525
0.9996795185599758
0.9996801840633507
0.999680924303188
0.9996817390147565
0.9996826278281676
0.9996835902654693
0.9996846257361937
0.9996857335314367
0.9996869128167911
0.9996881626242318
0.9996894818432511
0.9996908692113573
0.9996923233042194
0.9996938425255772
0.9996954250971837
0.9996970690489105
0.9996987722092615
0.9997005321964353
0.9997023464101618
0.9997042120244573
0.9997061259815044
0.9997080849868042
0.999710085505775
0.999712123761956
0.9997141957369502
0.9997162971722594
0.9997184235731218
0.9997205702144802
0.9997227321491557
0.9997249042183329
0.9997270810643933
0.9997292571461647
0.999731426756576
0.9997335840427509
0.9997357230284705
0.9997378376389959
0.9997399217281244
0.9997419691074138
0.9997439735773932
0.9997459289606434
0.9997478291364975
0.9997496680772044
0.9997514398852387
0.9997531388315555
0.999754759394431
0.9997562962986373
0.9997577445545632
0.9997590994970006
0.99976035682318
0.9997615126297728
0.9997625634484312
0.9997635062795985
0.9997643386241662
0.99976505851275
0.9997656645321885
0.9997661558490871
0.999766532230072
0.9997667940586337
0.9997669423483079
0.9997669787521456
0.9997669055683053
0.9997667257418128
0.9997664428624012
0.9997660611585668
0.9997655854878249
0.9997650213233827
0.9997643747372574
0.9997636523800972
0.9997628614577446
0.9997620097047744
0.9997611053549897
0.9997601571089909
0.9997591740986178
0.9997581658481336
0.9997571422316763
0.9997561134264469
0.999755089860418
0.9997540821534667
0.9997531010509446
0.9997521573493834
0.9997512618091321
0.9997504250563481
0.9997496574798512
0.9997489691563339
0.9997483697409946
0.9997478685735591
0.9997474747519519
0.9997471976606706
0.9997470470148185
0.9997470346960132
0.9997471693039891
0
0
0.9996909050512945
0.9996906243267978
0.9996902598762123
0.9996898180544534
0.9996893079808146
0.9996887387794418
0.999688120295079
0.9996874624638331
0.9996867751391393
0.999686067987211
0.9996853503458077
0.9996846311246463
0.9996839187190176
0.9996832209446043
0.9996825450044177
0.9996818974773233
0.9996812843224258
0.9996807108970327
0.9996801819844711
0.999679701828376
0.999679274170532
0.9996789022908082
0.9996785890473554
0.9996783369162521
0.999678148029422
0.9996780242105667
0.9996779670083816
0.9996779777270929
0.9996780574538571
0.9996782070832336
0.9996784273384468
0.9996787187897435
0.9996790818696663
0.9996795168856027
0.9996800240295034
0.9996806033851389
0.9996812549328483
0.9996819785521492
0.9996827740221914
0.9996836410204257
0.9996845791194903
0.9996855877826736
0.9996866663579831
0.9996878140711559
0.9996890300176632
0.9996903131540271
0.9996916622885152
0.9996930760715163
0.9996945529856782
0.9996960913360885
0.9996976892405949
0.9996993446205308
0.9997010551919473
0.9997028184576011
0.9997046316998125
0.999706491974413
0.999708396105908
0.9997103406840518
0.9997123220619542
0.9997143363558929
0.9997163794469484
0.9997184469845978
0.9997205343923752
0.9997226368756972
0.9997247494319411
0.9997268668628327
0.9997289837891967
0.9997310946680847
0.9997331938122986
0.9997352754122578
0.9997373335601931
0.9997393622765611
0.9997413555386045
0.9997433073108892
0.999745211577701
0.9997470623770618
0.9997488538362016
0.9997505802081883
0.9997522359094982
0.9997538155581844
0.9997553140123839
0.9997567264087776
0.9997580482007238
0.999759275195644
0.9997604035913793
0.999761430011082
0.999762351536372
0.999763165738333
0.9997638707061055
0.9997644650726836
0.9997649480377276
0.9997653193870446
0.9997655795086118
0.9997657294048794
0.9997657707012966
0.9997657056508737
0.9997655371348282
0.9997652686591953
0.9997649043475441
0.9997644489297521
0.9997639077270511
0.9997632866333528
0.9997625920930993
0.9997618310756672
0.9997610110465522
0.9997601399353193
0.9997592261004564
0.9997582782909931
0.9997573056048292
0.9997563174433756
0.9997553234622736
0.9997543335176433
0.9997533576072203
0.9997524058051875
0.9997514881917624
0.9997506147786709
0.9997497954320375
0.9997490397903636
0.9997483572160113
0.9997477567662055
0.9997472472529404
0.9997468373516687
0.9997465358593667
0.9997463513300818
0.9997462940208909
0.9997463710625096
0
0
0.9996919722632985
0.9996915789514537
0.9996911234019604
0.9996906103230373
0.9996900460714798
0.9996894377498369
0.9996887932268238
0.999688120582694
0.9996874280210983
0.9996867236737849
0.9996860154652397
0.999685311015349
0.9996846175529331
0.9996839418562027
0.9996832902140728
0.999682668405292
0.9996820816939087
0.9996815348380022
0.9996810321074374
0.9996805773084645
0.9996801738126756
0.9996798245888522
0.9996795322357781
0.9996792990152835
0.999679126884281
0.9996790175255177
0.9996789723762088
0.9996789926545746
0.9996790793837248
0.9996792334130962
0.9996794554370652
0.999679746011038
0.9996801055647722
0.9996805344132754
0.9996810327651178
0.9996816007285353
0.9996822383152043
0.9996829454420849
0.999683721931242
0.9996845675080419
0.9996854817976656
0.9996864643203229
0.9996875144851362
0.9996886315830599
0.9996898147788292
0.9996910631022854
0.9996923754390927
0.9996937505211758
0.9996951869169108
0.9996966830213783
0.9996982370467346
0.9996998470129822
0.999701510739221
0.9997032258356306
0.9997049896962851
0.9997067994930302
0.999708652170526
0.999710544442668
0.9997124727904919
0.9997144334617479
0.9997164224722425
0.9997184356091129
0.9997204684361138
0.9997225163010436
0.9997245743453829
0.9997266375162145
0.99972870058048
0.9997307581415962
0.9997328046584403
0.99973483446668
0.9997368418024163
0.9997388208280461
0.9997407656602704
0.9997426704000937
0.9997445291646826
0.9997463361208679
0.9997480855201113
0.9997497717346466
0.9997513892945855
0.9997529329256319
0.9997543975871567
0.9997557785102358
0.9997570712353753
0.9997582716494932
0.9997593760218739
0.9997603810386541
0.9997612838355596
0.9997620820284603
0.9997627737414976
0.9997633576323743
0.9997638329146133
0.9997641993764207
0.9997644573960338
0.999764607953255
0.9997646526371259
0.9997645936495335
0.9997644338047822
0.9997641765250103
0.9997638258315747
0.9997633863323494
0.9997628632051427
0.9997622621772366
0.9997615895012878
0.9997608519276253
0.9997600566731886
0.9997592113870987
0.999758324113065
0.9997574032485229
0.99975645750062
0.9997554958388016
0.9997545274439215
0.9997535616535784
0.999752607903934
0.9997516756678017
0.999750774389233
0.9997499134161109
0.9997491019370435
0.9997483489225328
0.9997476630852256
0.9997470528688867
0.9997465264734173
0.9997460918655193
0.9997457570381068
0.99974552946857
0.999745417396767
0.9997454267936633
0
0
0.9996931064149727
0.9996925970748649
0.9996920453167574
0.9996914543258688
0.99969082835625
0.9996901728328256
0.9996894938176812
0.9996887977751849
0.9996880913971496
0.9996873813995371
0.9996866744018679
0.9996859768217838
0.9996852947922993
0.9996846341027015
0.999684000156123
0.9996833979448071
0.9996828320398056
0.9996823065923216
0.9996818253438099
0.999681391643209
0.9996810084687049
0.9996806784527619
0.9996804039086054
0.9996801868575221
0.9996800290556619
0.999679932020103
0.9996798970532625
0.9996799252657055
0.9996800175966993
0.9996801748327331
0.9996803976235421
0.999680686495964
0.99968104186528
0.9996814640444307
0.9996819532508536
0.999682509611346
0.9996831331647684
0.9996838238630008
0.9996845815700132
0.9996854060594509
0.999686297010639
0.9996872540034007
0.9996882765116067
0.9996893638958485
0.99969051539518
0.999691730118291
0.9996930070340936
0.9996943449620571
0.9996957425623043
0.9996971983257763
0.9996987105645023
0.9997002774022696
0.9997018967657424
0.9997035663763012
0.9997052837426771
0.9997070461546289
0.9997088506777403
0.999710694149577
0.9997125731772801
0.9997144841368053
0.9997164231738905
0.9997183862069337
0.9997203689318463
0.9997223668290357
0.9997243751725641
0.9997263890415917
0.9997284033341333
0.9997304127831781
0.9997324119751729
0.9997343953708627
0.9997363573284487
0.9997382921289844
0.9997401940039407
0.9997420571647798
0.9997438758344207
0.9997456442803742
0.9997473568493741
0.999749008003217
0.9997505923555893
0.9997521047095425
0.9997535400953409
0.9997548938083051
0.999756161446351
0.9997573389467982
0.9997584226221501
0.9997594091943957
0.9997602958275504
0.9997610801579837
0.9997617603222793
0.9997623349822072
0.999762803346605
0.999763165189785
0.9997634208663415
0.9997635713220417
0.9997636181007528
0.9997635633471701
0.9997634098053922
0.9997631608131895
0.9997628202921016
0.9997623927332933
0.9997618831793794
0.9997612972022144
0.9997606408769099
0.9997599207521043
0.9997591438167803
0.9997583174636367
0.999757449449298
0.9997565478513132
0.9997556210221745
0.9997546775402814
0.9997537261580652
0.9997527757471493
0.9997518352408952
0.9997509135748982
0.9997500196266254
0.9997491621548049
0.9997483497428047
0.9997475907501994
0.9997468932762219
0.9997462651378638
0.9997457138837519
0.9997452467275353
0.9997448707017985
0.999744592315289
0.9997444180225252
0.9997443526029711
0
0
0.9996942854792935
0.9996936586053288
0.9996930073568572
0.9996923336864582
0.9996916403031051
0.9996909311423625
0.9996902107387967
0.9996894841470603
0.9996887566843975
0.9996880337817113
0.9996873208584489
0.999686623216797
0.9996859459629795
0.9996852939480347
0.999684671724981
0.9996840835219603
0.9996835332276861
0.9996830243878406
0.9996825602098185
0.9996821435742681
0.9996817770510669
0.9996814629188062
0.999681203185993
0.9996809996134272
0.9996808537364202
0.9996807668866937
0.9996807402129733
0.9996807747003739
0.9996808711878484
0.9996810303839527
0.9996812528803872
0.999681539163675
0.9996818896245526
0.9996823045654931
0.9996827842060336
0.9996833286863474
0.9996839380687983
0.9996846123379324
0.9996853513986862
0.9996861550732646
0.9996870230965103
0.9996879551102037
0.99968895065615
0.9996900091684722
0.9996911299650035
0.9996923122381758
0.9996935550453258
0.9996948572987956
0.9996962177557802
0.9996976350082716
0.9996991074730824
0.9997006333822817
0.9997022107740406
0.9997038374842051
0.9997055111386177
0.9997072291464768
0.9997089886947751
0.9997107867440848
0.9997126200257378
0.9997144850406453
0.9997163780598074
0.9997182951267252
0.9997202320617665
0.9997221844686548
0.9997241477431217
0.9997261170838536
0.9997280875057436
0.9997300538555293
0.9997320108298015
0.9997339529953995
0.9997358748121418
0.9997377706578408
0.9997396348555059
0.9997414617026111
0.9997432455022853
0.999744980596224
0.9997466613991361
0.999748282434448
0.9997498383710346
0.9997513240606357
0.9997527345756843
0.9997540652471516
0.9997553117021141
0.9997564699005973
0.9997575361713978
0.999758507246412
0.9997593802931886
0.9997601529452307
0.9997608233297843
0.9997613900926783
0.9997618524199983
0.9997622100562001
0.9997624633185197
0.9997626131073536
0.99976266091255
0.9997626088153643
0.9997624594861184
0.9997622161774008
0.9997618827129401
0.9997614634720825
0.9997609633700849
0.9997603878342272
0.9997597427760229
0.9997590345595753
0.9997582699664054
0.9997574561568033
0.9997566006280503
0.9997557111695526
0.9997547958152269
0.9997538627931665
0.9997529204729824
0.9997519773110012
0.9997510417938277
0.9997501223806957
0.9997492274460783
0.9997483652237891
0.9997475437544339
0.999746770838963
0.9997460540012686
0.9997454004497351
0.9997448170698969
0.9997443103592901
0.9997438864267595
0.9997435508253598
0.9997433086287034
0.9997431635396381
0
0
0.9996954898808555
0.9996947452353963
0.9996939926043341
0.9996932330203172
0.9996924679807372
0.9996917001641946
0.9996909328372539
0.9996901698048237
0.9996894151623522
0.9996886731829484
0.9996879481859186
0.9996872444422846
0.9996865660993416
0.9996859171230308
0.9996853012559673
0.9996847219895366
0.999684182547128
0.9996836858775128
0.9996832346557213
0.9996828312903157
0.9996824779349377
0.9996821765033846
0.9996819286864526
0.9996817359701711
0.9996815996540812
0.99968152086949
0.9996815005966635
0.9996815396811136
0.9996816388481916
0.9996817987162869
0.9996820198080266
0.99968230255986
0.9996826473295556
0.9996830544020531
0.9996835239932755
0.9996840562523828
0.9996846512621346
0.9996853090378476
0.9996860295246761
0.9996868125936857
0.9996876580364988
0.9996885655589671
0.9996895347736882
0.9996905651917988
0.999691656213902
0.9996928071205419
0.9996940170621081
0.9996952850485697
0.9996966099389482
0.9996979904309121
0.999699425050426
0.9997009121418257
0.9997024498582698
0.9997040361529225
0.9997056687708465
0.9997073452419356
0.9997090628748835
0.9997108187525009
0.9997126097283902
0.9997144324252591
0.9997162832348971
0.999718158320059
0.999720053618283
0.9997219648478466
0.9997238875158801
0.9997258169287961
0.9997277482050337
0.9997296762902218
0.9997315959747356
0.9997335019136846
0.9997353886492709
0.9997372506354842
0.9997390822650323
0.9997408778983957
0.9997426318948561
0.9997443386453106
0.9997459926066719
0.9997475883375909
0.9997491205352516
0.9997505840729044
0.9997519740378534
0.9997532857694981
0.9997545148971161
0.9997556573769467
0.9997567095282504
0.9997576680678713
0.9997585301429955
0.9997592933616223
0.9997599558204735
0.9997605161298816
0.9997609734354287
0.999761327435927
0.9997615783975855
0.9997617271640163
0.9997617751620175
0.9997617244028716
0.9997615774791914
0.9997613375571464
0.999761008364202
0.9997605941723022
0.9997600997767184
0.9997595304705702
0.999758892015337
0.999758190607413
0.9997574328410858
0.9997566256680337
0.9997557763537522
0.999754892431024
0.9997539816508828
0.9997530519312191
0.9997521113035124
0.9997511678579676
0.9997502296877911
0.9997493048330583
0.9997484012252063
0.9997475266332719
0.9997466886131104
0.9997458944597051
0.9997451511662058
0.999744465378692
0.999743843357433
0.9997432909267999
0.9997428134011784
0.9997424154656666
0.9997421011078524
0.9997418731870032
0
0
0.9996967021203985
0.9996958403046635
0.9996949854482361
0.9996941378800659
0.9996932981245271
0.9996924678364634