# vtk DataFile Version 2.0
2D-ADE data file 
ASCII
DATASET RECTILINEAR_GRID
DIMENSIONS 128 128 1 
X_COORDINATES 128 int
0 1 2 3 4 5 6 7 8 9 10 11 12 13 14 15 16 17 18 19 20 21 22 23 24 25 26 27 28 29 30 31 32 33 34 35 36 37 38 39 40 41 42 43 44 45 46 47 48 49 50 51 52 53 54 55 56 57 58 59 60 61 62 63 64 65 66 67 68 69 70 71 72 73 74 75 76 77 78 79 80 81 82 83 84 85 86 87 88 89 90 91 92 93 94 95 96 97 98 99 100 101 102 103 104 105 106 107 108 109 110 111 112 113 114 115 116 117 118 119 120 121 122 123 124 125 126 127 
Y_COORDINATES 128 int
0 1 2 3 4 5 6 7 8 9 10 11 12 13 14 15 16 17 18 19 20 21 22 23 24 25 26 27 28 29 30 31 32 33 34 35 36 37 38 39 40 41 42 43 44 45 46 47 48 49 50 51 52 53 54 55 56 57 58 59 60 61 62 63 64 65 66 67 68 69 70 71 72 73 74 75 76 77 78 79 80 81 82 83 84 85 86 87 88 89 90 91 92 93 94 95 96 97 98 99 100 101 102 103 104 105 106 107 108 109 110 111 112 113 114 115 116 117 118 119 120 121 122 123 124 125 126 127 
Z_COORDINATES 1 int
0
POINT_DATA 16384
SCALARS density double
LOOKUP_TABLE default
0
0
0
0
0
0
0
0
0
0
0
0
0
0
0
0
0
0
0
0
0
0
0
0
0
0
0
0
0
0
0
0
0
0
0
0
0
0
0
0
0
0
0
0
0
0
0
0
0
0
0
0
0
0
0
0
0
0
0
0
0
0
0
0
0
0
0
0
0
0
0
0
0
0
0
0
0
0
0
0
0
0
0
0
0
0
0
0
0
0
0
0
0
0
0
0
0
0
0
0
0
0
0
0
0
0
0
0
0
0
0
0
0
0
0
0
0
0
0
0
0
0
0
0
0
0
0
0
0
0.999686940598086
0.9996870020102667
0.9996869104922999
0.9996866135983633
0.9996861086793146
0.9996854333484605
0.9996846236118813
0.9996837104593401
0.9996827215894053
0.9996816820164848
0.9996806136648981
0.999679535558359
0.9996784641617106
0.9996774136934915
0.9996763963810558
0.9996754226968569
0.9996745015734354
0.999673640595104
0.9996728461675162
0.9996721236682673
0.9996714775806401
0.9996709116122833
0.9996704288003615
0.9996700316045962
0.9996697219893662
0.9996695014959152
0.9996693713055482
0.9996693322946243
0.9996693850820234
0.9996695300697455
0.9996697674771796
0.9996700973695883
0.9996705196812659
0.9996710342338279
0.999671640750038
0.9996723388635695
0.9996731281250647
0.9996740080048498
0.9996749778926369
0.9996760370945366
0.9996771848276897
0.999678420212823
0.9996797422650062
0.9996811498829068
0.9996826418368028
0.999684216755627
0.9996858731132973
0.9996876092145923
0.9996894231808163
0.9996913129354942
0.9996932761903405
0.9996953104317267
0.9996974129078788
0.9996995806170225
0.9997018102966932
0.9997040984144137
0.999706441159945
0.9997088344392978
0.9997112738706867
0.999713754782598
0.9997162722141326
0.9997188209177597
0.9997213953646213
0.9997239897524874
0.9997265980164683
0.9997292138425381
0.9997318306839384
0.9997344417804669
0.9997370401806667
0.9997396187668746
0.9997421702830783
0.9997446873654903
0.9997471625757257
0.9997495884364204
0.9997519574691305
0.9997542622342821
0.9997564953729354
0.9997586496500961
0.9997607179992762
0.9997626935679744
0.9997645697637444
0.9997663403004812
0.9997679992445535
0.9997695410603975
0.9997709606551828
0.9997722534221574
0.9997734152823
0.9997744427238994
0.9997753328397179
0.9997760833614097
0.9997766926909064
0.9997771599285029
0.999777484897447
0.9997776681648599
0.9997777110588884
0.9997776156820398
0.999777384920729
0.9997770224511171
0.9997765327414178
0.9997759210509048
0.9997751934259426
0.9997743566934368
0.9997734184521836
0.999772387062667
0.9997712716359402
0.9997700820222692
0.9997688288002989
0.9997675232675101
0.9997661774327471
0.9997648040115554
0.9997634164248524
0.999762028801187
0.9997606559823837
0.9997593135320783
0.9997580177421743
0.9997567856293985
0.9997556349093562
0.9997545839699452
0.9997536517404251
0.9997528572886888
0.9997522187214112
0.999751753243158
0.9997514760942362
0.9997513929873312
0.9997514505052656
0.9997515684449456
0
0
0.9996868793989362
0.9996869407620811
0.9996868407998132
0.9996865579937295
0.9996861106469875
0.9996855155507597
0.9996847978864141
0.9996839834063215
0.9996830966796575
0.9996821597331473
0.9996811923487482
0.9996802121057372
0.9996792344903821
0.9996782730396659
0.9996773395316227
0.999676444167177
0.9996755957399645
0.9996748017931861
0.9996740687640271
0.9996734021150055
0.9996728064526279
0.9996722856342349
0.999671842863826
0.9996714807777515
0.9996712015209736
0.9996710068146837
0.9996708980158793
0.9996708761695748
0.9996709420541433
0.9996710962203689
0.9996713390246371
0.9996716706567574
0.9996720911627918
0.9996726004633306
0.9996731983675425
0.9996738845833998
0.9996746587243744
0.9996755203129672
0.9996764687813519
0.9996775034694599
0.9996786236207731
0.9996798283761288
0.9996811167657904
0.9996824877000668
0.999683939958727
0.999685472179471
0.9996870828457008
0.9996887702738364
0.999690532600407
0.9996923677691574
0.9996942735183959
0.9996962473687926
0.999698286611865
0.9997003882993423
0.9997025492336299
0.9997047659595536
0.9997070347575983
0.9997093516387938
0.9997117123414496
0.999714112329877
0.9997165467952663
0.9997190106588388
0.9997214985774141
0.9997240049514751
0.9997265239358422
0.9997290494529943
0.9997315752091135
0.9997340947128402
0.9997366012967697
0.9997390881416264
0.9997415483030896
0.9997439747411571
0.9997463603519589
0.999748698001844
0.9997509805636066
0.999753200954605
0.9997553521765813
0.9997574273568928
0.9997594197908971
0.9997613229851592
0.9997631307011845
0.9997648369993006
0.9997664362823716
0.9997679233389387
0.9997692933854624
0.9997705421072569
0.999771665697801
0.999772660896033
0.9997735250213423
0.9997742560059149
0.9997748524241904
0.999775313519157
0.9997756392253211
0.9997758301881605
0.9997758877799994
0.9997758141122196
0.9997756120438608
0.9997752851866484
0.9997748379066248
0.9997742753225559
0.999773603301418
0.9997728284512658
0.9997719581119119
0.9997710003438287
0.9997699639158022
0.9997688582918133
0.9997676936177144
0.999766480708141
0.9997652310340979
0.9997639567114016
0.9997626704899717
0.9997613857433323
0.9997601164567349
0.9997588772105369
0.9997576831553467
0.9997565499710055
0.9997554937915926
0.9997545310406449
0.9997536781777249
0.9997529513309557
0.9997523657929259
0.9997519339448009
0.999751662141871
0.9997515458979386
0.9997515664934121
0.9997516833635326
0
0
0.999686970995583
0.9996870408362051
0.9996869406802441
0.9996866718754097
0.9996862601536659
0.9996857178039767
0.9996850663157848
0.9996843270912055
0.999683520931213
0.9996826670768902
0.9996817833078886
0.9996808856620948
0.9996799884528488
0.9996791043551148
0.9996782445296902
0.9996774187444585
0.9996766355016161
0.999675902163159
0.9996752250704096
0.9996746096553687
0.9996740605435432
0.9996735816482589
0.9996731762564345
0.9996728471062084
0.9996725964566877
0.9996724261503536
0.9996723376684443
0.9996723321798512
0.9996724105838399
0.9996725735471035
0.9996728215354346
0.9996731548404874
0.9996735736018938
0.9996740778251592
0.9996746673955949
0.9996753420886705
0.9996761015770331
0.9996769454345443
0.999677873137569
0.9996788840638448
0.9996799774891614
0.9996811525821443
0.9996824083973731
0.9996837438671123
0.9996851577918746
0.9996866488300762
0.9996882154870056
0.9996898561033446
0.9996915688434621
0.9996933516837021
0.9996952024008886
0.9996971185612472
0.999699097509964
0.999701136361571
0.9997032319913647
0.9997053810280352
0.9997075798477039
0.9997098245695241
0.9997121110530293
0.999714434897364
0.9997167914425652
0.9997191757729901
0.999721582723046
0.9997240068852811
0.9997264426209562
0.9997288840731213
0.9997313251822819
0.9997337597046276
0.9997361812328631
0.9997385832195695
0.9997409590030845
0.999743301835769
0.9997456049145992
0.9997478614138967
0.9997500645200771
0.9997522074681713
0.9997542835799521
0.99975628630336
0.9997582092530186
0.9997600462514846
0.9997617913709782
0.9997634389752161
0.9997649837610525
0.9997664207995354
0.9997677455760748
0.9997689540293268
0.9997700425884909
0.9997710082086516
0.999771848403892
0.999772561277835
0.9997731455514096
0.9997736005875475
0.9997739264126806
0.9997741237348329
0.9997741939582566
0.9997741391945164
0.9997739622700654
0.9997736667303332
0.9997732568404814
0.9997727375829545
0.9997721146520998
0.9997713944460785
0.9997705840564477
0.9997696912557021
0.9997687244832093
0.9997676928298447
0.9997666060217156
0.9997654744031783
0.9997643089192997
0.9997631210975452
0.9997619230281989
0.9997607273423852
0.9997595471859324
0.999758396184447
0.9997572883930715
0.9997562382219067
0.9997552603369265
0.9997543694843314
0.9997535801876598
0.9997529062011955
0.9997523602184749
0.9997519525669436
0.9997516890868713
0.9997515655204976
0.9997515863580636
0.9997517394657681
0
0
0.999687268362877
0.999687324312631
0.9996872093629082
0.9996869396775079
0.9996865413300591
0.9996860293247413
0.9996854220710175
0.999684736849133
0.9996839914201759
0.9996832027050113
0.9996823864562113
0.9996815570542765
0.9996807275400315
0.9996799096150748
0.9996791136911967
0.9996783489688396
0.9996776235312445
0.9996769444398835
0.9996763178290465
0.999675748997658
0.9996752424964627
0.9996748022095882
0.9996744314298761
0.9996741329280239
0.9996739090153863
0.9996737616007358
0.9996736922410204
0.9996737021865345
0.9996737924206157
0.9996739636943195
0.9996742165562112
0.9996745513777114
0.9996749683741655
0.9996754676220363
0.999676049072403
0.9996767125611459
0.9996774578159877
0.9996782844607579
0.9996791920170517
0.999680179903618
0.9996812474336548
0.9996823938103249
0.9996836181206682
0.9996849193282001
0.9996862962643842
0.9996877476192384
0.9996892719312689
0.9996908675769771
0.9996925327601269
0.9996942655010074
0.9996960636258756
0.9996979247568019
0.9996998463020967
0.9997018254475264
0.9997038591484956
0.9997059441233829
0.9997080768482048
0.9997102535527684
0.9997124702184815
0.9997147225779567
0.9997170061165603
0.9997193160760157
0.9997216474601911
0.9997239950431417
0.9997263533795201
0.9997287168173697
0.9997310795133965
0.999733435450676
0.9997357784588548
0.9997381022367552
0.9997404003773903
0.9997426663952494
0.9997448937558043
0.9997470759070475
0.9997492063129557
0.999751278488632
0.9997532860369766
0.9997552226865798
0.9997570823306441
0.9997588590665832
0.9997605472360718
0.999762141465149
0.9997636367041307
0.9997650282669152
0.9997663118694204
0.9997674836667397
0.9997685402887564
0.9997694788738286
0.9997702971003056
0.9997709932155251
0.9997715660621044
0.999772015101229
0.9997723404328209
0.9997725428123655
0.9997726236643668
0.9997725850922913
0.9997724298850762
0.9997721615201592
0.9997717841631989
0.9997713026645476
0.9997707225527395
0.9997700500251372
0.9997692919360633
0.9997684557826216
0.9997675496885406
0.9997665823862202
0.9997655631972352
0.9997645020112862
0.9997634092635896
0.999762295910263
0.9997611734009768
0.9997600536471417
0.999758948983527
0.9997578721203295
0.9997568360813551
0.999755854112254
0.9997549395485628
0.9997541056355739
0.9997533653466726
0.999752730941391
0.9997522134026721
0.9997518214007681
0.9997515626656069
0.9997514403891999
0.9997514705987754
0.9997516582794741
0
0
0.9996877755248359
0.9996877737809529
0.9996876217790615
0.9996873361171935
0.9996869359891233
0.9996864370188828
0.9996858552740089
0.9996852059049278
0.9996845042406864
0.9996837648864895
0.9996830016458159
0.9996822273405834
0.9996814537306015
0.9996806914706651
0.9996799501369966
0.9996792382735973
0.9996785634520821
0.9996779323401542
0.9996773507750434
0.9996768238375681
0.9996763559242543
0.999675950816453
0.9996756117453874
0.9996753414528043
0.9996751422466941
0.999675016052206
0.9996749644575476
0.9996749887551679
0.9996750899781695
0.9996752689323186
0.999675526223682
0.9996758622822826
0.9996762773818411
0.9996767716560022
0.999677345111129
0.9996779976360561
0.9996787290089004
0.9996795389012991
0.9996804268801882
0.9996813924074648
0.9996824348376654
0.9996835534139707
0.9996847472626837
0.9996860153864708
0.9996873566565178
0.9996887698038689
0.9996902534101103
0.9996918058976493
0.9996934255197509
0.9996951103505671
0.9996968582753261
0.999698666980897
0.9997005339469051
0.9997024564375881
0.9997044314945713
0.9997064559307358
0.9997085263253509
0.999710639020627
0.9997127901198454
0.9997149754872031
0.9997171907495219
0.9997194312999096
0.9997216923035307
0.9997239687055244
0.9997262552411988
0.9997285464485143
0.9997308366829412
0.999733120134663
0.9997353908481749
0.9997376427441916
0.9997398696438771
0.9997420652952549
0.9997442234017615
0.9997463376527449
0.9997484017558258
0.9997504094708638
0.9997523546453951
0.9997542312512413
0.9997560334221003
0.9997577554917794
0.9997593920328478
0.9997609378953249
0.9997623882451645
0.9997637386021268
0.9997649848767916
0.9997661234062927
0.9997671509885414
0.9997680649145333
0.9997688629985265
0.9997695436057288
0.9997701056773212
0.9997705487525114
0.9997708729875092
0.9997710791711899
0.9997711687374153
0.9997711437738602
0.9997710070274098
0.9997707619060572
0.9997704124774642
0.9997699634641996
0.9997694202358917
0.9997687887983882
0.9997680757802055
0.9997672884163835
0.9997664345300338
0.9997655225116397
0.9997645612962892
0.9997635603387068
0.9997625295859498
0.9997614794471621
0.9997604207597149
0.9997593647502746
0.9997583229884998
0.9997573073292424
0.9997563298411938
0.9997554027170921
0.9997545381571712
0.9997537481877916
0.9997530444723187
0.9997524380614886
0.9997519392438518
0.999751556771825
0.999751299755349
0.9997511760438376
0.9997512010845329
0.9997513864224438
0
0
0.99968845660837
0.9996883737403356
0.9996881666863556
0.9996878471370451
0.9996874294272178
0.9996869277094289
0.9996863557278968
0.9996857267788442
0.9996850539523884
0.9996843498599813
0.9996836265738948
0.999682895409455
0.999682166836452
0.9996814504418201
0.9996807549256532
0.9996800881154964
0.9996794570021945
0.9996788677883814
0.9996783259431403
0.9996778362596562
0.9996774029135769
0.9996770295206173
0.9996767191918099
0.9996764745858964
0.9996762979580656
0.9996761912050267
0.9996761559059739
0.999676193359664
0.9996763046173733
0.999676490512071
0.9996767516836945
0.9996770886009086
0.9996775015793032
0.999677990796427
0.99967855630366
0.9996791980353069
0.9996799158149545
0.9996807093594596
0.999681578280625
0.9996825220849186
0.9996835401713101
0.999684631827558
0.9996857962250328
0.999687032412396
0.999688339308224
0.9996897156928821
0.999691160199751
0.9996926713060834
0.999694247323608
0.9996958863891393
0.9996975864553194
0.9996993452817273
0.9997011604264945
0.9997030292386354
0.9997049488512457
0.999706916175746
0.9997089278973298
0.9997109804717729
0.9997130701237514
0.99971519284681
0.9997173444051095
0.9997195203370699
0.9997217159610248
0.9997239263829601
0.9997261465064431
0.9997283710447656
0.9997305945353797
0.9997328113566073
0.9997350157466671
0.9997372018249442
0.9997393636155095
0.9997414950727588
0.9997435901091308
0.9997456426247224
0.9997476465387071
0.9997495958223218
0.9997514845332814
0.9997533068513307
0.999755057114753
0.9997567298574946
0.9997583198466962
0.9997598221202432
0.9997612320241132
0.9997625452491019
0.999763757866697
0.9997648663636787
0.9997658676752192
0.9997667592160747
0.9997675389096661
0.9997682052146742
0.999768757148992
0.9997691943107079
0.9997695168960227
0.9997697257138487
0.9997698221970609
0.9997698084102282
0.9997696870538891
0.9997694614652686
0.9997691356155952
0.9997687141039857
0.9997682021481304
0.9997676055718083
0.9997669307894966
0.9997661847881253
0.999765375106225
0.9997645098104548
0.999763597469644
0.9997626471261489
0.9997616682644033
0.999760670776025
0.9997596649207379
0.9997586612818298
0.999757670715051
0.9997567042880454
0.9997557732062391
0.9997548887207678
0.9997540620278765
0.9997533041431276
0.9997526257523527
0.9997520369995749
0.999751547581191
0.9997511665495437
0.9997509035024094
0.9997507682536803
0.9997507736118318
0.9997509301859843
0
0
0.9996892774765238
0.9996891004270229
0.9996888237148465
0.9996884552633376
0.999688006447974
0.9996874885347422
0.9996869129388487
0.9996862910741899
0.9996856341243657
0.9996849529663888
0.9996842580477365
0.9996835592464282
0.9996828657971102
0.9996821862327503
0.9996815283574714
0.9996808992469123
0.9996803052674142
0.9996797521064777
0.9996792448112887
0.9996787878327255
0.9996783850717375
0.9996780399264417
0.9996777553382791
0.9996775338366519
0.9996773775809981
0.999677288400192
0.9996772678286453
0.9996773171392758
0.9996774373729593
0.9996776293647728
0.9996778937667851
0.9996782310677788
0.9996786416097417
0.9996791256015423
0.9996796831296942
0.9996803141666133
0.9996810185763237
0.9996817961180094
0.9996826464473884
0.9996835691162989
0.9996845635704955
0.9996856291460238
0.9996867650641964
0.9996879704255125
0.9996892442025629
0.9996905852322462
0.9996919922073506
0.9996934636678011
0.9996949979916517
0.9996965933860927
0.9996982478785706
0.999699959308268
0.9997017253180538
0.9997035433471281
0.9997054106244798
0.9997073241633645
0.9997092807569206
0.9997112769751059
0.9997133091630783
0.9997153734411722
0.999717465706591
0.9997195816369319
0.99972171669566
0.9997238661396043
0.9997260250285788
0.9997281882371605
0.999730350468695
0.9997325062715258
0.9997346500574833
0.9997367761225656
0.9997388786698228
0.9997409518343197
0.9997429897101371
0.9997449863792363
0.9997469359420984
0.9997488325499045
0.9997506704381237
0.9997524439612224
0.9997541476283172
0.999755776139432
0.9997573244221599
0.9997587876683376
0.9997601613705165
0.9997614413578128
0.999762623830908
0.9997637053957752
0.9997646830959075
0.9997655544426362
0.999766317443338
0.9997669706271474
0.9997675130680201
0.9997679444048061
0.9997682648582407
0.9997684752445779
0.9997685769858486
0.9997685721165351
0.9997684632867322
0.9997682537616673
0.9997679474177198
0.9997675487348902
0.9997670627859321
0.9997664952221332
0.9997658522560064
0.9997651406408842
0.9997643676476595
0.9997635410386103
0.9997626690384478
0.9997617603023493
0.9997608238808885
0.9997598691813485
0.9997589059249611
0.9997579440988388
0.9997569939015366
0.9997560656811906
0.9997551698659048
0.9997543168812616
0.9997535170566445
0.9997527805251056
0.999752117148179
0.9997515364064464
0.9997510474836904
0.9997506593277479
0.9997503811093706
0.9997502222639495
0.9997501941193989
0.9997503048573075
0
0
0.999690208987751
0.9996899294754927
0.9996895725192613
0.9996891440581543
0.9996886526173824
0.9996881068434799
0.9996875161055502
0.9996868898983401
0.9996862376558012
0.9996855686450021
0.9996848918229777
0.9996842157387343
0.9996835484481575
0.9996828974509236
0.9996822696584582
0.9996816713828228
0.9996811083407721
0.9996805856708596
0.9996801079598413
0.9996796792752458
0.9996793032012264
0.9996789828764184
0.9996787210319681
0.9996785200290756
0.9996783818948493
0.9996783083563334
0.9996783008719374
0.9996783606604007
0.9996784887267751
0.9996786858857236
0.9996789527817782
0.9996792899069342
0.9996796976153385
0.9996801761354783
0.9996807255797007
0.9996813459514875
0.9996820371503531
0.9996827989747962
0.9996836311232077
0.9996845331931508
0.9996855046789466
0.9996865449679598
0.999687653335553
0.9996888289390713
0.9996900708108549
0.9996913778506188
0.9996927488172187
0.9996941823201182
0.9996956768105957
0.999697230572985
0.9996988417160059
0.9997005081644578
0.9997022276513433
0.9997039977106771
0.9997058156710605
0.9997076786502475
0.9997095835508002
0.9997115270570286
0.9997135056333152
0.9997155155239977
0.999717552754909
0.9997196131367065
0.9997216922700913
0.9997237855530119
0.9997258881899352
0.9997279952032357
0.9997301014467697
0.999732201621634
0.9997342902941425
0.9997363619159771
0.9997384108465005
0.9997404313771328
0.9997424177577438
0.9997443642248965
0.9997462650318506
0.9997481144801015
0.9997499069523265
0.9997516369464441
0.9997532991106209
0.9997548882788904
0.9997563995071708
0.9997578281093078
0.999759169692914
0.9997604201945897
0.9997615759142959
0.9997626335484491
0.9997635902215138
0.9997644435156732
0.9997651914983735
0.99976583274735
0.9997663663729761
0.9997667920375836
0.9997671099716593
0.9997673209866224
0.9997674264841654
0.9997674284619287
0.9997673295155818
0.9997671328371439
0.9997668422097019
0.9997664619984313
0.9997659971381354
0.9997654531172621
0.9997648359586492
0.9997641521969718
0.9997634088531294
0.9997626134054945
0.9997617737581942
0.9997608982062135
0.9997599953973059
0.9997590742902553
0.9997581441092797
0.9997572142939598
0.9997562944440771
0.9997553942580548
0.9997545234658519
0.9997536917572094
0.9997529087064547
0.9997521836910939
0.9997515258391273
0.9997509439940875
0.9997504467572965
0.9997500425784227
0.9997497399684874
0.9997495471484977
0.9997494737991744
0.9997495266458786
0
0
0.9996912250801891
0.9996908375180172
0.9996903931762113
0.9996898964117472
0.9996893530991245
0.9996887699322189
0.9996881543632399
0.999687514086572
0.9996868569365475
0.9996861906951088
0.9996855229555214
0.9996848610256038
0.9996842118420132
0.9996835819116846
0.9996829772735644
0.9996824034778771
0.9996818655811421
0.9996813681540317
0.99968091529782
0.9996805106674536
0.9996801574987273
0.9996798586382866
0.9996796165745031
0.9996794334686551
0.9996793111851154
0.9996792513204162
0.9996792552302838
0.9996793240547848
0.999679458740953
0.9996796600631958
0.999679928641027
0.9996802649545105
0.9996806693570811
0.9996811420861731
0.999681683271396
0.9996822929407116
0.9996829710244042
0.9996837173572966
0.9996845316790534
0.9996854136330066
0.9996863627633822
0.999687378511344
0.9996884602097674
0.9996896070771342
0.999690818210489
0.999692092577831
0.9996934290098979
0.999694826191698
0.9996962826537742
0.9996977967635239
0.9996993667165853
0.9997009905285976
0.9997026660273503
0.9997043908456164
0.999706162414704
0.9997079779589849
0.9997098344914614
0.9997117288105941
0.9997136574984637
0.9997156169204643
0.999717603226596
0.9997196123545289
0.9997216400345017
0.9997236817961822
0.9997257329775497
0.9997277887358813
0.9997298440608803
0.9997318937899798
0.9997339326258401
0.999735955156007
0.9997379558747228
0.999739929206799
0.9997418695334985
0.9997437712202749
0.9997456286462766
0.9997474362353999
0.9997491884887513
0.9997508800182456
0.9997525055811626
0.9997540601153236
0.9997555387746918
0.9997569369649962
0.9997582503791699
0.9997594750321696
0.9997606072949504
0.9997616439271546
0.9997625821082896
0.9997634194669591
0.9997641541079502
0.9997647846367541
0.9997653101813768
0.999765730411058
0.9997660455518053
0.9997662563984266
0.9997663643230489
0.9997663712798621
0.9997662798061655
0.9997660930195261
0.9997658146112103
0.9997654488357604
0.9997650004969513
0.9997644749300445
0.9997638779806195
0.9997632159799215
0.9997624957169985
0.999761724407544
0.9997609096596614
0.9997600594363814
0.9997591820150487
0.9997582859432713
0.9997573799913544
0.9997564731008188
0.9997555743292175
0.9997546927908989
0.9997538375938114
0.9997530177734771
0.9997522422298373
0.999751519666926
0.999750858548128
0.9997502670770471
0.9997497532080151
0.9997493246437402
0.9997489890538364
0.9997487535665559
0.9997486258777531
0.9997486115677726
0
0
0.9996923020298328
0.9996918034369503
0.9996912670538483
0.9996906957819807
0.9996900934922438
0.9996894652645012
0.9996888168103607
0.9996881542649784
0.9996874840029841
0.9996868124410025
0.9996861459160885
0.9996854905811635
0.9996848523226919
0.9996842367020049
0.9996836489129737
0.9996830937571304
0.9996825756327397
0.9996820985352379
0.9996816660660843
0.9996812814485679
0.9996809475479318
0.9996806668947325
0.9996804417095654
0.9996802739286912
0.999680165229173
0.9996801170534316
0.9996801306322303
0.9996802070062507
0.9996803470455303
0.9996805514670919
0.9996808208502029
0.9996811556496923
0.9996815562068868
0.9996820227586405
0.999682555444103
0.9996831543097219
0.9996838193121873
0.9996845503198123
0.9996853471121115
0.9996862093780544
0.9996871367128005
0.9996881286133693
0.9996891844730967
0.9996903035752992
0.9996914850860319
0.999692728046348
0.9996940313639572
0.9996953938046771
0.9996968139836117
0.9996982903564058
0.9996998212105505
0.9997014046570631
0.999703038622537
0.9997047208418599
0.99970644885162
0.9997082199844732
0.9997100313645065
0.9997118799038477
0.9997137623005613
0.9997156750380588
0.9997176143860692
0.9997195764033603
0.9997215569422567
0.9997235516551127
0.9997255560027724
0.9997275652651267
0.9997295745537985
0.9997315788269969
0.999733572906558
0.99973555149716
0.9997375092076847
0.9997394405746635
0.999741340087741
0.9997432022170183
0.9997450214421818
0.9997467922832083
0.9997485093324986
0.9997501672881816
0.999751760988394
0.9997532854462143
0.999754735885032
0.9997561077739681
0.9997573968631149
0.9997585992181729
0.9997597112542366
0.9997607297682914
0.99976165197018
0.9997624755116005
0.9997631985129201
0.9997638195873799
0.9997643378625274
0.9997647529984861
0.9997650652029656
0.9997652752426698
0.9997653844510903
0.9997653947324061
0.9997653085615621
0.9997651289803237
0.9997648595894587
0.9997645045369156
0.9997640685022245
0.9997635566770433
0.9997629747421266
0.9997623288406643
0.9997616255482928
0.9997608718397075
0.9997600750521655
0.9997592428457531
0.9997583831606353
0.9997575041711366
0.9997566142368464
0.999755721850511
0.9997548355830062
0.9997539640257511
0.9997531157316261
0.9997522991547545
0.9997515225928463
0.9997507941360245
0.9997501216250844
0.9997495126221656
0.9997489744115613
0.9997485139268585
0.9997481378702175
0.99974785240153
0.999747663485823
0.9997475755416829
0
0
0.9996934187662825
0.999692807982841
0.9996921766379789
0.9996915264633053
0.9996908598656861
0.9996901804997645
0.999689492614045
0.9996888009894611
0.9996881106795769
0.9996874268664994
0.999686754735476
0.9996860993704523
0.9996854656756154
0.9996848583164011
0.9996842816765146
0.9996837398306994
0.9996832365294346
0.9996827751943865
0.9996823589219028
0.999681990493188
0.9996816723887354
0.9996814068062698
0.9996811956803257
0.9996810407031057
0.9996809433451809
0.9996809048760369
0.9996809263833829
0.9996810087914485
0.9996811528774442
0.9996813592865605
0.9996816285448563
0.999681961070501
0.9996823571828545
0.9996828171098833
0.9996833409934976
0.9996839288933232
0.9996845807885584
0.9996852965784365
0.9996860760809912
0.9996869190306346
0.9996878250742938
0.9996887937665968
0.9996898245638859
0.9996909168175324
0.9996920697663724
0.9996932825286969
0.999694554093663
0.9996958833125323
0.9996972688896266
0.9996987093733959
0.9997002031475035
0.9997017484223099
0.9997033432266853
0.9997049854005017
0.9997066725877699
0.9997084022307369
0.9997101715649344
0.999711977615471
0.999713817194569
0.9997156869006077
0.9997175831186887
0.9997195020229542
0.9997214395806657
0.9997233915582421
0.9997253535292655
0.9997273208845925
0.9997292888445811
0.9997312524735119
0.9997332066961907
0.999735146316754
0.9997370660396401
0.9997389604926706
0.9997408242521788
0.9997426518700606
0.999744437902633
0.9997461769411211
0.9997478636436066
0.9997494927681846
0.9997510592071369
0.9997525580217936
0.9997539844778552
0.9997553340807998
0.9997566026111219
0.9997577861589813
0.9997588811580014
0.9997598844177733
0.9997607931548107
0.999761605021499
0.9997623181328267
0.9997629310904436
0.9997634430038838
0.9997638535085407
0.9997641627802883
0.999764371546392
0.9997644810926907
0.9997644932667473
0.9997644104770483
0.9997642356880257
0.9997639724110597
0.9997636246913185
0.9997631970906716
0.9997626946665957
0.999762122947367
0.9997614879035019
0.9997607959157795
0.9997600537398047
0.9997592684674678
0.9997584474852403
0.9997575984296422
0.9997567291398044
0.9997558476075042
0.999754961924704
0.9997540802290739
0.9997532106477147
0.9997523612404118
0.9997515399434238
0.9997507545154038
0.9997500124879112
0.9997493211229268
0.9997486873685308
0.9997481178404294
0.9997476187531348
0.9997471958953033
0.9997468544864043
0.999746599165195
0.999746433313585
0
0
0.9996945566273159
0.9996938336754128
0.9996931057608287
0.9996923737484185
0.999691638903334
0.999690903684646
0.9996901711325052
0.9996894448330391
0.9996887286710342
0.9996880267206316
0.9996873431147588
0.9996866819519805
0.9996860472212716
0.9996854427445571
0.999684872134426
0.999684338765715
0.9996838457578902
0.999683395967418
0.9996829919873813
0.99968263615342
0.9996823305538001
0.9996820770430337
0.9996818772572115
0.9996817326308314
0.9996816444136878
0.9996816136879002
0.999681641383946
0.9996817282959842
0.9996818750955786
0.9996820823442463
0.9996823505041001
0.9996826799471087
0.99968307096236
0.9996835237618973
0.9996840384846108
0.9996846151987656
0.9996852539027186
0.9996859545244138
0.9996867169192598
0.9996875408669598
0.9996884260669563
0.9996893721330363
0.9996903785868054
0.9996914448505445
0.9996925702392074
0.9996937539520385
0.9996949950636097
0.9996962925147354
0.9996976451030861
0.9996990514739469
0.9997005101109712
0.9997020193273464
0.9997035772572559
0.9997051818480343
0.9997068308529233
0.9997085218247982
0.9997102521107989
0.9997120188482123
0.9997138189615598
0.999715649161196
0.9997175059433954
0.9997193855922022
0.9997212841830174
0.9997231975881591
0.9997251214843781
0.9997270513625068
0.999728982539217
0.9997309101710115
0.999732829270406
0.9997347347243638
0.9997366213149088
0.9997384837419153
0.9997403166479675
0.9997421146452066
0.9997438723440231
0.9997455843834403
0.9997472454630022
0.9997488503759276
0.9997503940433242
0.9997518715491371
0.9997532781755987
0.999754609438794
0.9997558611240802
0.9997570293209375
0.9997581104569669
0.9997591013305893
0.9997599991421742
0.9997608015231307
0.999761506562729
0.9997621128321896
0.9997626194058585
0.9997630258790414
0.9997633323823842
0.9997635395924186
0.9997636487382526
0.999763661604087
0.9997635805276363
0.9997634083942089
0.9997631486266216
0.9997628051707828
0.9997623824772068
0.9997618854783679
0.9997613195622254
0.9997606905418803
0.9997600046217576
0.9997592683602917
0.9997584886295438
0.9997576725717474
0.9997568275532291
0.999755961115727
0.9997550809255813
0.9997541947209238
0.9997533102575519
0.9997524352537769
0.9997515773351767
0.9997507439801595
0.9997499424674328
0.9997491798254412
0.9997484627868068
0.9997477977383673
0.9997471906741351
0.999746647142089
0.999746172154044
0.99974577008639
0.9997454445432316
0.9997451981028135
0
0
0.9996956989840129
0.999694864659103
0.999694039551484
0.9996932238679292
0.9996924179629434
0.9996916233278993