# vtk DataFile Version 2.0
2D-ADE data file 
ASCII
DATASET RECTILINEAR_GRID
DIMENSIONS 128 128 1 
X_COORDINATES 128 int
0 1 2 3 4 5 6 7 8 9 10 11 12 13 14 15 16 17 18 19 20 21 22 23 24 25 26 27 28 29 30 31 32 33 34 35 36 37 38 39 40 41 42 43 44 45 46 47 48 49 50 51 52 53 54 55 56 57 58 59 60 61 62 63 64 65 66 67 68 69 70 71 72 73 74 75 76 77 78 79 80 81 82 83 84 85 86 87 88 89 90 91 92 93 94 95 96 97 98 99 100 101 102 103 104 105 106 107 108 109 110 111 112 113 114 115 116 117 118 119 120 121 122 123 124 125 126 127 
Y_COORDINATES 128 int
0 1 2 3 4 5 6 7 8 9 10 11 12 13 14 15 16 17 18 19 20 21 22 23 24 25 26 27 28 29 30 31 32 33 34 35 36 37 38 39 40 41 42 43 44 45 46 47 48 49 50 51 52 53 54 55 56 57 58 59 60 61 62 63 64 65 66 67 68 69 70 71 72 73 74 75 76 77 78 79 80 81 82 83 84 85 86 87 88 89 90 91 92 93 94 95 96 97 98 99 100 101 102 103 104 105 106 107 108 109 110 111 112 113 114 115 116 117 118 119 120 121 122 123 124 125 126 127 
Z_COORDINATES 1 int
0
POINT_DATA 16384
SCALARS density double
LOOKUP_TABLE default
0
0
0
0
0
0
0
0
0
0
0
0
0
0
0
0
0
0
0
0
0
0
0
0
0
0
0
0
0
0
0
0
0
0
0
0
0
0
0
0
0
0
0
0
0
0
0
0
0
0
0
0
0
0
0
0
0
0
0
0
0
0
0
0
0
0
0
0
0
0
0
0
0
0
0
0
0
0
0
0
0
0
0
0
0
0
0
0
0
0
0
0
0
0
0
0
0
0
0
0
0
0
0
0
0
0
0
0
0
0
0
0
0
0
0
0
0
0
0
0
0
0
0
0
0
0
0
0
0
0.9996871908615782
0.999687244460289
0.9996871523590759
0.9996868691911258
0.9996863971227625
0.9996857726498362
0.9996850298203737
0.9996841976543164
0.9996833019295988
0.9996823657689426
0.9996814093335231
0.999680450043635
0.9996795029231617
0.9996785809046121
0.999677695076003
0.999676854906153
0.9996760684472726
0.9996753425138347
0.9996746828395756
0.999674094216006
0.9996735806147281
0.9996731452954759
0.9996727909014783
0.9996725195436099
0.9996723328744987
0.9996722321536441
0.9996722183044078
0.9996722919636594
0.9996724535247363
0.9996727031743234
0.9996730409237712
0.999673466635341
0.9996739800437996
0.9996745807737748
0.999675268353224
0.999676042223377
0.9996769017454524
0.9996778462044685
0.9996788748104222
0.999679986697116
0.9996811809188912
0.999682456445518
0.9996838121554852
0.999685246827921
0.999686759133378
0.9996883476236966
0.9996900107211665
0.9996917467071964
0.9996935537106993
0.999695429696393
0.9996973724532178
0.9996993795830637
0.9997014484899988
0.9997035763701839
0.9997057602026597
0.9997079967411757
0.99971028250724
0.9997126137845539
0.9997149866149844
0.9997173967962286
0.9997198398813144
0.9997223111800545
0.999724805762589
0.9997273184651044
0.9997298438978325
0.9997323764553928
0.9997349103295409
0.9997374395243517
0.99973995787386
0.999742459062145
0.9997449366458335
0.9997473840789608
0.9997497947401154
0.9997521619617553
0.9997544790615678
0.9997567393757123
0.9997589362937627
0.9997610632951377
0.9997631139867965
0.9997650821419276
0.9997669617393791
0.9997687470035183
0.9997704324442359
0.9997720128967599
0.9997734835609746
0.9997748400399088
0.9997760783770795
0.9997771950923716
0.9997781872161554
0.9997790523213573
0.9997797885532271
0.999780394656563
0.9997808700002152
0.9997812145986903
0.9997814291307697
0.9997815149550683
0.9997814741225368
0.9997813093859673
0.9997810242066243
0.9997806227581907
0.9997801099283032
0.9997794913180065
0.9997787732395584
0.999777962713079
0.9997770674626318
0.9997760959123927
0.9997750571836538
0.999773961093458
0.9997728181557276
0.9997716395857632
0.9997704373089019
0.9997692239739776
0.9997680129719784
0.9997668184602851
0.9997656553892283
0.9997645395250571
0.9997634874594986
0.9997625166289446
0.9997616452609122
0.999760892094878
0.9997602754742962
0.9997598134610026
0.9997595232814834
0.9997594152667632
0.9997594487449247
0.9997595532191256
0
0
0.9996871426495703
0.9996871950896882
0.9996870970652612
0.9996868304880557
0.999686414816993
0.9996858668366105
0.9996852107607461
0.9996844708923196
0.999683670174592
0.9996828290382647
0.999681965739643
0.9996810964313476
0.9996802352889085
0.9996793946619759
0.9996785852624712
0.9996778163403631
0.9996770958453902
0.9996764305747322
0.9996758263076825
0.9996752879271884
0.9996748195289539
0.9996744245191819
0.9996741057018773
0.999673865356682
0.9996737053079855
0.9996736269861403
0.9996736314813792
0.9996737195911123
0.9996738918610841
0.999674148620958
0.9996744900147075
0.9996749160263007
0.9996754265009983
0.9996760211626796
0.9996766996274734
0.9996774614140621
0.9996783059508989
0.9996792325806753
0.9996802405622506
0.999681329070346
0.999682497193217
0.9996837439285636
0.9996850681778854
0.9996864687395292
0.9996879443006227
0.9996894934281223
0.9996911145591707
0.9996928059909713
0.9996945658703744
0.9996963921833723
0.9996982827446914
0.9997002351876626
0.9997022469545667
0.9997043152876145
0.9997064372207525
0.9997086095724501
0.999710828939642
0.9997130916929752
0.9997153939735168
0.9997177316910604
0.9997201005241689
0.9997224959220651
0.9997249131085046
0.9997273470876938
0.9997297926523783
0.9997322443941247
0.9997346967158961
0.9997371438468989
0.9997395798597665
0.999741998690025
0.9997443941578469
0.9997467599920024
0.9997490898559703
0.99975137737606
0.9997536161714604
0.9997557998860255
0.9997579222216569
0.9997599769730426
0.9997619580635753
0.9997638595821631
0.9997656758207178
0.9997674013119996
0.9997690308675727
0.9997705596155346
0.9997719830377516
0.9997732970062582
0.9997744978185565
0.999775582231481
0.9997765474933801
0.9997773913743213
0.9997781121940962
0.9997787088477929
0.99977918082877
0.9997795282488593
0.9997797518557306
0.9997798530473149
0.9997798338833275
0.999779697093892
0.9997794460854136
0.9997790849438216
0.9997786184354561
0.9997780520058347
0.9997773917767024
0.9997766445417202
0.9997758177613051
0.9997749195570788
0.9997739587065101
0.9997729446382366
0.9997718874286181
0.9997707977998703
0.9997696871200658
0.9997685674047743
0.9997674513194492
0.999766352180073
0.999765283949792
0.9997642612256069
0.999763299201466
0.9997624135567907
0.9997616202729743
0.9997609353518382
0.9997603744766719
0.9997599512239826
0.9997596744241614
0.999759543149185
0.9997595457911318
0.9997596473766559
0
0
0.9996872395583304
0.9996872968160173
0.9996871983077502
0.9996869461699246
0.9996865650491715
0.9996860673222608
0.9996854736328634
0.9996848041788019
0.9996840784193897
0.9996833142467031
0.9996825281061996
0.9996817347656424
0.9996809473556059
0.9996801774653467
0.9996794352683843
0.9996787296421034
0.9996780682904071
0.9996774578628066
0.9996769040665338
0.999676411770093
0.9996759850982145
0.999675627518472
0.9996753419197046
0.9996751306827699
0.9996749957439558
0.9996749386516538
0.9996749606166323
0.9996750625564591
0.9996752451343855
0.9996755087931901
0.9996758537842504
0.9996762801922918
0.9996767879560411
0.9996773768851976
0.9996780466739238
0.9996787969112163
0.9996796270883554
0.9996805366037569
0.9996815247654062
0.9996825907911769
0.999683733807205
0.9996849528445935
0.9996862468346149
0.9996876146026681
0.9996890548611533
0.9996905662015018
0.9996921470855259
0.9996937958363055
0.9996955106287838
0.9996972894802678
0.9996991302410084
0.9997010305850419
0.9997029880014683
0.9997049997863298
0.9997070630352691
0.999709174637113
0.999711331268554
0.999713529390064
0.9997157652431983
0.999718034849412
0.9997203340105295
0.9997226583109659
0.9997250031218283
0.9997273636069632
0.99972973473106
0.9997321112698351
0.9997344878223943
0.999736858825747
0.9997392185715336
0.9997415612249132
0.9997438808456195
0.9997461714110886
0.9997484268416313
0.9997506410274978
0.9997528078577597
0.9997549212508221
0.999756975186432
0.999758963738956
0.9997608811117531
0.9997627216723666
0.9997644799883377
0.9997661508633224
0.9997677293732886
0.9997692109024614
0.9997705911787683
0.9997718663084529
0.9997730328096134
0.9997740876443308
0.9997750282491767
0.9997758525637843
0.9997765590573112
0.9997771467525284
0.999777615247415
0.9997779647340589
0.9997781960148202
0.9997783105156345
0.9997783102965033
0.9997781980591407
0.9997779771519267
0.9997776515722339
0.9997772259663806
0.9997767056273831
0.9997760964908498
0.999775405129275
0.9997746387451525
0.9997738051632024
0.9997729128221372
0.9997719707662136
0.9997709886368541
0.9997699766642862
0.9997689456589818
0.9997679070021575
0.9997668726341594
0.9997658550370346
0.9997648672059272
0.9997639226013305
0.9997630350838406
0.9997622187858214
0.9997614878771832
0.9997608560967539
0.999760336536719
0.9997599405010527
0.9997596758591607
0.9997595411853815
0.9997595434296295
0.9997596731984764
0
0
0.9996875270860631
0.9996875679576613
0.9996874542291602
0.9996872012012649
0.9996868330851186
0.9996863643212828
0.9996858123329317
0.9996851934081044
0.9996845241678798
0.9996838203482479
0.9996830965270908
0.9996823659610574
0.9996816406303988
0.999680931250851
0.9996802473287068
0.9996795972402024
0.9996789883230907
0.99967842696778
0.9996779187064909
0.9996774682989696
0.999677079813234
0.9996767567006916
0.9996765018651848
0.9996763177261653
0.9996762062759297
0.9996761691312905
0.9996762075797592
0.9996763226206835
0.9996765150014651
0.9996767852493046
0.9996771336986003
0.999677560514441
0.9996780657123119
0.9996786491744157
0.9996793106627443
0.9996800498292573
0.9996808662233031
0.9996817592966154
0.9996827284060145
0.9996837728141216
0.9996848916882136
0.9996860840975088
0.9996873490090045
0.9996886852821435
0.9996900916624243
0.9996915667742224
0.9996931091129377
0.9996947170367088
0.9996963887578292
0.9996981223340773
0.9996999156601074
0.9997017664590849
0.9997036722747322
0.9997056304639426
0.9997076381901264
0.9997096924174453
0.9997117899060773
0.9997139272086633
0.9997161006680714
0.9997183064166033
0.9997205403767758
0.9997227982637715
0.9997250755896816
0.9997273676696052
0.9997296696297093
0.9997319764172748
0.9997342828128168
0.9997365834442586
0.9997388728032202
0.9997411452633593
0.999743395100786
0.9997456165164462
0.9997478036604539
0.9997499506582213
0.9997520516383254
0.9997541007619052
0.999756092253496
0.9997580204330432
0.9997598797489649
0.9997616648119644
0.9997633704294289
0.9997649916400837
0.9997665237487134
0.9997679623605944
0.9997693034154438
0.999770543220521
0.9997716784826767
0.9997727063390117
0.9997736243859482
0.999774430706398
0.9997751238948801
0.9997757030802961
0.9997761679462857
0.9997765187489202
0.9997767563317289
0.9997768821378902
0.9997768982196592
0.9997768072449563
0.9997766125012648
0.9997763178968597
0.9997759279595996
0.9997754478333786
0.9997748832725523
0.9997742406344827
0.9997735268705562
0.9997727495158194
0.999771916677542
0.9997710370227246
0.9997701197646701
0.9997691746483043
0.9997682119337895
0.9997672423770185
0.9997662772053347
0.999765328085998
0.9997644070840938
0.9997635265955426
0.9997626992454811
0.9997619377424455
0.9997612547379144
0.9997606624543207
0.9997601722030041
0.9997597933659509
0.9997595346869126
0.9997594008821706
0.9997594081250379
0.9997595624718039
0
0
0.9996880054010141
0.9996879899157831
0.9996878403350624
0.9996875719354664
0.9996872022568591
0.9996867459386095
0.9996862179950187
0.9996856326233376
0.9996850041102898
0.9996843460148128
0.9996836711062062
0.999682991206512
0.9996823171245509
0.9996816586255652
0.99968102446258
0.9996804224242615
0.9996798593938315
0.9996793414148886
0.9996788737608178
0.9996784610040462
0.9996781070829224
0.9996778153654564
0.9996775887090152
0.9996774295158168
0.9996773397837856
0.9996773211529798
0.9996773749474199
0.9996775022126746
0.999677703749132
0.9996779801413768
0.999678331783653
0.9996787589018412
0.999679261571957
0.9996798397355884
0.999680493212302
0.9996812217094021
0.999682024829096
0.9996829020734217
0.999683852846996
0.9996848764579239
0.999685972116926
0.9996871389350092
0.9996883759197464
0.9996896819704564
0.9996910558723711
0.999692496290058
0.9996940017601873
0.9996955706838978
0.999697201318859
0.9996988917712633
0.9997006399878522
0.9997024437481942
0.9997043006573292
0.9997062081389684
0.9997081634293783
0.9997101635721158
0.9997122054137466
0.9997142856006886
0.999716400577313
0.9997185465854301
0.9997207196652751
0.9997229156580953
0.9997251302104555
0.999727358780319
0.9997295966450109
0.999731838911088
0.9997340805261977
0.9997363162929062
0.9997385408845633
0.999740748863134
0.9997429346990222
0.999745092792788
0.9997472174987364
0.9997493031502319
0.9997513440866782
0.9997533346819706
0.999755269374321
0.9997571426972129
0.9997589493113579
0.9997606840373584
0.9997623418889263
0.9997639181063278
0.9997654081898768
0.9997668079331244
0.9997681134555627
0.9997693212344724
0.9997704281357398
0.9997714314432773
0.9997723288868919
0.9997731186682534
0.9997737994848503
0.999774370551617
0.9997748316201709
0.9997751829954036
0.9997754255494232
0.9997755607326632
0.9997755905822271
0.9997755177273604
0.9997753453921998
0.999775077395765
0.9997747181494174
0.9997742726518144
0.9997737464816401
0.9997731457881742
0.999772477279988
0.9997717482118023
0.9997709663697281
0.9997701400547699
0.9997692780645625
0.9997683896728236
0.9997674846060448
0.9997665730161746
0.9997656654473934
0.9997647727932135
0.9997639062420084
0.9997630772066227
0.9997622972312177
0.9997615778385447
0.9997609303653124
0.9997603657366659
0.9997598943402211
0.9997595252962272
0.9997592680416432
0.9997591309057641
0.9997591286332368
0.9997592725158907
0
0
0.9996886397198339
0.9996885470245576
0.9996883451860532
0.9996880447533986
0.9996876586539836
0.9996871999288098
0.9996866812792048
0.9996861150517233
0.9996855133808574
0.9996848879431482
0.9996842498875252
0.9996836096374971
0.9996829768142467
0.9996823602069901
0.9996817677730137
0.9996812066543007
0.9996806832132721
0.9996802030794167
0.9996797712008983
0.9996793918984246
0.9996790689193268
0.9996788054906595
0.9996786043698845
0.999678467892821
0.9996783980181356
0.9996783963684798
0.9996784642678542
0.9996786027754887
0.9996788127160046
0.9996790947062325
0.9996794491785495
0.999679876401135
0.9996803764950702
0.9996809494486818
0.9996815951290884
0.999682313291339
0.9996831035851286
0.9996839655594599
0.9996848986652529
0.9996859022562554
0.9996869755882641
0.9996881178169953
0.9996893279946238
0.9996906050653057
0.9996919478597225
0.9996933550889366
0.9996948253376087
0.9996963570568467
0.9996979485567528
0.9996995979989126
0.9997013033889056
0.9997030625690655
0.9997048732115753
0.9997067328121066
0.9997086386840985
0.9997105879538628
0.999712577556616
0.9997146042336057
0.9997166645304295
0.9997187547966919
0.9997208711870965
0.9997230096640893
0.9997251660021415
0.9997273357937579
0.9997295144572921
0.9997316972466056
0.9997338792626443
0.9997360554669292
0.9997382206970028
0.9997403696837894
0.9997424970708848
0.9997445974356747
0.9997466653122726
0.9997486952161287
0.9997506816702583
0.9997526192328893
0.9997545025264506
0.9997563262676473
0.9997580852985092
0.9997597746181149
0.9997613894148546
0.9997629250988922
0.999764377334674
0.9997657420731122
0.9997670155832866
0.9997681944832809
0.9997692757699961
0.99977025684756
0.999771135554201
0.9997719101872135
0.9997725795259246
0.9997731428523242
0.9997735999693121
0.9997739512162803
0.9997741974820402
0.9997743402148792
0.999774381429825
0.9997743237129688
0.9997741702229989
0.9997739246898621
0.9997735914107699
0.999773175243518
0.999772681597376
0.9997721164215344
0.9997714861913738
0.9997707978924788
0.9997700590025795
0.9997692774712008
0.9997684616969736
0.999767620502014
0.9997667631027654
0.9997658990760979
0.9997650383197263
0.9997641910042825
0.9997633675132079
0.9997625783656829
0.9997618341305411
0.9997611453167677
0.9997605222396593
0.9997599748182648
0.9997595126287142
0.999759144718589
0.9997588805575871
0.9997587297682836
0.9997587042170428
0.9997588137418367
0
0
0.999689397564997
0.9996892163612612
0.9996889491668737
0.9996886030032844
0.9996881879798136
0.9996877143386839
0.9996871925204837
0.9996866330302601
0.9996860461750832
0.9996854419843434
0.9996848300801472
0.9996842195481292
0.9996836188681543
0.9996830358616305
0.9996824776681554
0.9996819507476821
0.9996814608995698
0.9996810132917113
0.9996806124967087
0.9996802625328113
0.9996799669067101
0.9996797286568333
0.9996795503955896
0.9996794343501643
0.9996793824008898
0.9996793961171964
0.9996794767905389
0.9996796254645453
0.9996798429619927
0.9996801299089713
0.999680486755963
0.9996809137962501
0.9996814111814549
0.9996819789346427
0.9996826169608394
0.9996833250553947
0.9996841029100715
0.9996849501172849
0.9996858661723966
0.9996868504744685
0.9996879023254046
0.9996890209278613
0.9996902053818791
0.9996914546805896
0.9996927677049694
0.9996941432179764
0.999695579858053
0.9996970761323106
0.9996986304094012
0.9997002409123589
0.9997019057114415
0.9997036227172316
0.9997053896740404
0.9997072041538495
0.9997090635508497
0.9997109650767904
0.9997129057572048
0.9997148824287015
0.9997168917373916
0.9997189301386221
0.9997209938980819
0.9997230790944162
0.9997251816234257
0.9997272972039394
0.9997294213854365
0.9997315495574682
0.9997336769609364
0.9997357987012406
0.9997379097633299
0.9997400050286234
0.9997420792938114
0.9997441272914513
0.9997461437123369
0.9997481232295077
0.9997500605238432
0.9997519503110517
0.9997537873699709
0.999755566571936
0.999757282911102
0.9997589315354282
0.999760507778186
0.9997620071896612
0.9997634255688863
0.9997647589950538
0.9997660038584324
0.999767156890417
0.9997682151925534
0.9997691762641484
0.9997700380283401
0.9997707988562499
0.9997714575891207
0.9997720135580968
0.999772466601603
0.9997728170800161
0.9997730658876504
0.9997732144618067
0.9997732647889732
0.9997732194079929
0.999773081410348
0.9997728544374367
0.9997725426750571
0.9997721508450131
0.9997716841940889
0.9997711484803181
0.9997705499567964
0.9997698953528963
0.9997691918530607
0.9997684470728775
0.999767669032402
0.9997668661261788
0.9997660470895819
0.999765220960251
0.9997643970335776
0.99976358481103
0.9997627939408871
0.9997620341463919
0.9997613151413979
0.9997606465365132
0.9997600377628516
0.9997594979624461
0.9997590360261354
0.9997586606244492
0.999758380524684
0.9997582046250146
0.9997581431433014
0.9997582034272178
0
0
0.9996902515071948
0.9996899748478805
0.9996896329950246
0.9996892311210961
0.9996887766572814
0.9996882773651358
0.9996877417244889
0.9996871784000038
0.9996865960312219
0.9996860031223775
0.9996854078967691
0.9996848182015396
0.9996842414250692
0.9996836844380014
0.9996831535634401
0.9996826545668702
0.9996821926601197
0.9996817725173833
0.999681398299618
0.9996810736845084
0.9996808018992719
0.9996805857552538
0.9996804276825667
0.9996803297642914
0.9996802937690858
0.9996803211821924
0.9996804132340704
0.9996805709268843
0.9996807950583062
0.9996810862429986
0.9996814449313779
0.9996818714260882
0.999682365895888
0.9996829283873927
0.9996835588344457
0.9996842570655681
0.9996850228092932
0.9996858556978342
0.9996867552689278
0.9996877209662792
0.9996887521384805
0.9996898480368133
0.999691007811825
0.9996922305090706
0.9996935150639332
0.9996948602958902
0.999696264902162
0.9996977274510832
0.9996992463751581
0.9997008199641143
0.9997024463579381
0.999704123540179
0.9997058493315312
0.9997076213839482
0.9997094371753176
0.9997112940049365
0.9997131889898128
0.9997151190620153
0.99971708096711
0.9997190712638749
0.999721086325334
0.9997231223412748
0.9997251753222883
0.9997272411054637
0.9997293153617713
0.9997313936052206
0.9997334712038257
0.9997355433924126
0.9997376052872884
0.9997396519027579
0.9997416781694841
0.9997436789546226
0.999745649083706
0.9997475833641518
0.9997494766103348
0.999751323670047
0.9997531194522539
0.9997548589559145
0.9997565372997488
0.9997581497526608
0.999759691764688
0.999761158998137
0.9997625473587514
0.999763853026555
0.999765072486197
0.9997662025564188
0.9997672404184942
0.9997681836432345
0.9997690302164435
0.999769778562425
0.9997704275654526
0.9997709765888424
0.9997714254915825
0.9997717746421979
0.9997720249298716
0.9997721777725457
0.9997722351220918
0.9997721994663391
0.9997720738281026
0.9997718617610621
0.9997715673426946
0.9997711951641377
0.9997707503172322
0.9997702383786189
0.9997696653911408
0.9997690378423694
0.9997683626404419
0.9997676470869115
0.9997668988466245
0.9997661259140721
0.9997653365760244
0.9997645393697093
0.9997637430359018
0.9997629564654094
0.9997621886392825
0.9997614485631767
0.9997607451962967
0.9997600873713076
0.9997594837326479
0.9997589426886495
0.9997584724168703
0.9997580809155241
0.9997577761196536
0.999757565578829
0.9997574577918117
0.9997574586524989
0
0
0.9996911772091511
0.9996908005965026
0.9996903779790681
0.9996899130618947
0.9996894108260356
0.9996888772002909
0.9996883188528556
0.9996877427461137
0.9996871560073061
0.9996865657423927
0.9996859788981449
0.9996854021662932
0.9996848418995633
0.9996843040551755
0.9996837941577248
0.9996833172790814
0.9996828780330952
0.9996824805823257
0.9996821286526737
0.9996818255541667
0.9996815742054602
0.9996813771609752
0.9996812366387968
0.9996811545489179
0.9996811325205692
0.9996811719286279
0.9996812739181882
0.9996814394275388
0.9996816692088811
0.9996819638471638
0.9996823237765315
0.9996827492948365
0.9996832405758064
0.9996837976793639
0.9996844205597561
0.9996851090719946
0.9996858629763236
0.9996866819412079
0.9996875655445964
0.9996885132739414
0.9996895245247613
0.9996905985982087
0.9996917346974563
0.9996929319233446
0.9996941892691326
0.9996955056147633
0.9996968797205211
0.9996983102204597
0.9996997956155106
0.9997013342666157
0.9997029243878297
0.9997045640397044
0.9997062511229181
0.9997079833724497
0.9997097583522708
0.9997115734508331
0.9997134258773409
0.9997153126590617
0.9997172306396724
0.9997191764788718
0.9997211466532644
0.9997231374587073
0.9997251450141366
0.9997271652670303
0.9997291940005167
0.999731226842243
0.9997332592750129
0.9997352866492583
0.9997373041973396
0.9997393070496887
0.9997412902527696
0.9997432487888186
0.9997451775973148
0.9997470715980772
0.9997489257159223
0.9997507349067133
0.9997524941847071
0.9997541986509725
0.9997558435227584
0.9997574241635298
0.999758936113531
0.9997603751205411
0.999761737170669
0.999763018518818
0.9997642157186539
0.9997653256516864
0.9997663455553089
0.9997672730493862
0.9997681061612692
0.999768843348822
0.9997694835213785
0.9997700260582445
0.9997704708247012
0.9997708181851686
0.9997710690135473
0.9997712247004436
0.9997712871573629
0.9997712588176287
0.9997711426341855
0.9997709420740892
0.9997706611098978
0.9997703042078118
0.9997698763128074
0.9997693828306207
0.99976882960683
0.9997682229028588
0.9997675693690906
0.9997668760148275
0.9997661501751908
0.9997653994745284
0.9997646317862244
0.9997638551883178
0.9997630779149858
0.9997623083032905
0.9997615547349064
0.9997608255732011
0.9997601291000398
0.9997594734523058
0.9997588665665453
0.9997583161424465
0.9997578296221462
0.9997574141605491
0.9997570767557735
0.9997568238102715
0.9997566618808347
0.9997565957307241
0
0
0.9996921527022475
0.9996916739907261
0.9996911667781223
0.9996906334342599
0.9996900771118468
0.9996895022376298
0.9996889138563095
0.9996883174702733
0.9996877188387364
0.9996871237911925
0.9996865381039403
0.9996859673973487
0.9996854170546149
0.999684892164113
0.9996843974776805
0.9996839373858578
0.9996835159063211
0.9996831366831394
0.9996828029938989
0.9996825177634028
0.9996822835813631
0.9996821027231961
0.9996819771720844
0.9996819086419946
0.9996818986002715
0.9996819482898482
0.9996820587500548
0.9996822308362958
0.9996824652378258
0.9996827624940323
0.9996831230086093
0.9996835470621195
0.9996840348224322
0.9996845863535765
0.9996852016225757
0.9996858805048083
0.9996866227875278
0.9996874281720786
0.9996882962744832
0.9996892266249308
0.999690218665877
0.9996912717492605
0.9996923851325876
0.9996935579743659
0.9996947893286654
0.9996960781392638
0.9996974232331894
0.9996988233140905
0.9997002769552654
0.999701782592768
0.9997033385184454
0.9997049428732933
0.999706593641016
0.9997082886421502
0.9997100255286623
0.9997118017793487
0.9997136146959761
0.9997154614004594
0.999717338833031
0.9997192437516692
0.999721172732756
0.9997231221731911
0.9997250882939491
0.9997270671452605
0.9997290546134121
0.999731046429303
0.9997330381787424
0.999735025314584
0.9997370031706718
0.9997389669776354
0.9997409118804976
0.9997428329580698
0.9997447252440765
0.9997465837499333
0.9997484034890792
0.9997501795027297
0.9997519068869362
0.9997535808207391
0.9997551965952839
0.9997567496436237
0.9997582355710614
0.9997596501857019
0.9997609895290449
0.999762249906254
0.9997634279159302
0.999764520478989
0.9997655248664794
0.9997664387259299
0.9997672601060864
0.9997679874796249
0.9997686197637397
0.9997691563382133
0.9997695970609173
0.9997699422803861
0.9997701928454755
0.9997703501117906
0.9997704159449687
0.9997703927205525
0.999770283320606
0.9997700911268627
0.9997698200106181
0.9997694743191918
0.9997690588592191
0.9997685788766069
0.9997680400334341
0.9997674483815957
0.9997668103334634
0.9997661326292879
0.9997654223015364
0.999764686635834
0.999763933128641
0.9997631694412141
0.9997624033499604
0.9997616426931583
0.999760895314763
0.9997601690051486
0.9997594714413222
0.9997588101299336
0.9997581923544105
0.9997576251298227
0.9997571151754236
0.9997566688281724
0.9997562920874359
0.9997559903713952
0.9997557685986982
0.999755630418468
0
0
0.9996931586157054
0.9996925772785501
0.9996919832120834
0.9996913777271506
0.9996907626550311
0.9996901411105358
0.9996895167885599
0.9996888939346624
0.9996882770811698
0.9996876709118491
0.9996870801361416
0.9996865093874255
0.9996859631452812
0.9996854456772104
0.9996849609958339
0.9996845128313541
0.9996841046154012
0.9996837394752122
0.9996834202353921
0.9996831494260827
0.9996829292951269
0.9996827618236624
0.9996826487432747
0.9996825915545023
0.9996825915452573
0.9996826498092806
0.9996827672635241
0.999682944664791
0.999683182624748
0.9996834816237865
0.9996838420230104
0.9996842640748949
0.9996847479320108
0.9996852936544066
0.9996859012151192
0.9996865705044146
0.9996873013323
0.999688093429901
0.9996889464492945
0.9996898599623834
0.9996908334584375
0.9996918663408701
0.9996929579229148
0.9996941074227456
0.9996953139577395
0.9996965765383973
0.9996978940616625
0.999699265304117
0.9997006889148328
0.9997021634083305
0.9997036871574505
0.9997052583865679
0.9997068751649802
0.9997085354008739
0.9997102368357292
0.9997119770395344
0.9997137534067044
0.9997155631530341
0.9997174033136099
0.9997192707419796
0.999721162110513
0.9997230739122231
0.9997250024639968
0.9997269439114594
0.9997288942354228
0.9997308492601116
0.9997328046631048
0.9997347559871363
0.999736698653694
0.9997386279784961
0.9997405391887755
0.9997424274423863
0.9997442878486473
0.999746115490867
0.9997479054504498
0.999749652832452
0.9997513527924655
0.9997530005646335
0.9997545914906449
0.9997561210494543
0.9997575848875538
0.99975897884948
0.9997602990083718
0.9997615416962141
0.9997627035335881
0.9997637814585126
0.9997647727542137
0.9997656750753997
0.999766486472881
0.9997672054161236
0.9997678308136173
0.9997683620306483
0.9997687989044296
0.9997691417561942
0.9997693914002789
0.9997695491498464
0.9997696168193422
0.9997695967233915
0.9997694916723014
0.9997693049639281
0.9997690403721415
0.9997687021316828
0.9997682949197069
0.9997678238338257
0.9997672943669681
0.9997667123788694
0.9997660840644995
0.9997654159192224
0.999764714700963
0.9997639873891051
0.9997632411404175
0.9997624832417802
0.9997617210600326
0.9997609619887978
0.9997602133932264
0.9997594825532291
0.9997587766061824
0.9997581024910001
0.9997574668947181
0.9997568761955549
0.9997563364203681
0.9997558531676737
0.9997554315300683
0.9997550760029477
0.999754790276289
0.9997545770333249
0
0
0.9996941779094118
0.9996934944502975
0.9996928124477762
0.9996921324391116
0.9996914552364493
0.9996907828669308
0.9996901179216551
0.9996894635478388
0.9996888232021116
0.9996882005477935
0.9996875993261712
0.9996870232659387
0.9996864760086933
0.9996859610520766
0.9996854817073544
0.9996850410704519
0.9996846420033005
0.9996842871248212
0.9996839788087742
0.9996837191877522
0.9996835101610826
0.9996833534062545
0.9996832503919966
0.9996832023929658
0.999683210504557
0.9996832756580667
0.9996833986350009
0.9996835800809566
0.999683820518088
0.9996841203567082
0.9996844799051976
0.9996848993788413
0.9996853789068826
0.9996859185384563
0.9996865182467689
0.9996871779322043
0.9996878974237873
0.9996886764796798
0.9996895147861987
0.9996904119560085
0.9996913675250326
0.9996923809487079
0.9996934515971688
0.9996945787499656
0.9996957615899341
0.9996969991967993
0.9996982905401692
0.9996996344724646
0.999701029721486
0.9997024748831302
0.9997039684139941
0.9997055086243506
0.9997070936712653
0.9997087215523135
0.9997103900996944
0.9997120969751767
0.9997138396656995
0.9997156154800285
0.999717421546327
0.9997192548109968
0.9997211120386753
0.99972298981371
0.9997248845430086
0.9997267924605419
0.9997287096334153
0.9997306319697331
0.9997325552281751
0.9997344750294587
0.9997363868696028
0.999738286135102
0.9997401681199223
0.9997420280443635
0.9997438610756738
0.9997456623504
0.9997474269983401
0.9997491501679977
0.9997508270533961
0.9997524529220676
0.9997540231440575
0.9997555332216901
0.9997569788199147
0.999758355796917
0.9997596602347959
0.9997608884699445
0.9997620371229322
0.9997631031274813
0.9997640837583494
0.9997649766576878
0.9997657798597079
0.9997664918132263
0.9997671114019561
0.999767637962128
0.9997680712973723
0.9997684116904619
0.9997686599119263
0.9997688172251776
0.9997688853882333
0.999768866651731
0.9997687637534004
0.9997685799087361
0.9997683187981207
0.9997679845501762
0.9997675817216682
0.9997671152737634
0.999766590545011
0.9997660132208612
0.9997653893001021
0.9997647250580296
0.9997640270067428
0.9997633018523567
0.9997625564495372
0.999761797753197
0.9997610327679
0.9997602684949255
0.9997595118776691
0.9997587697458569
0.9997580487593252
0.9997573553513414
0.9997566956731485
0.9997560755338125
0.999755500334956
0.9997549750108787
0.9997545039017895
0.9997540906996419
0.9997537381537163
0.9997534482167987
0
0
0.9996951954998461
0.9996944110809991
0.9996936409309758
0.9996928850084769
0.9996921433238631
0.9996914170345756