# vtk DataFile Version 2.0
2D-ADE data file 
ASCII
DATASET RECTILINEAR_GRID
DIMENSIONS 128 128 1 
X_COORDINATES 128 int
0 1 2 3 4 5 6 7 8 9 10 11 12 13 14 15 16 17 18 19 20 21 22 23 24 25 26 27 28 29 30 31 32 33 34 35 36 37 38 39 40 41 42 43 44 45 46 47 48 49 50 51 52 53 54 55 56 57 58 59 60 61 62 63 64 65 66 67 68 69 70 71 72 73 74 75 76 77 78 79 80 81 82 83 84 85 86 87 88 89 90 91 92 93 94 95 96 97 98 99 100 101 102 103 104 105 106 107 108 109 110 111 112 113 114 115 116 117 118 119 120 121 122 123 124 125 126 127 
Y_COORDINATES 128 int
0 1 2 3 4 5 6 7 8 9 10 11 12 13 14 15 16 17 18 19 20 21 22 23 24 25 26 27 28 29 30 31 32 33 34 35 36 37 38 39 40 41 42 43 44 45 46 47 48 49 50 51 52 53 54 55 56 57 58 59 60 61 62 63 64 65 66 67 68 69 70 71 72 73 74 75 76 77 78 79 80 81 82 83 84 85 86 87 88 89 90 91 92 93 94 95 96 97 98 99 100 101 102 103 104 105 106 107 108 109 110 111 112 113 114 115 116 117 118 119 120 121 122 123 124 125 126 127 
Z_COORDINATES 1 int
0
POINT_DATA 16384
SCALARS density double
LOOKUP_TABLE default
0
0
0
0
0
0
0
0
0
0
0
0
0
0
0
0
0
0
0
0
0
0
0
0
0
0
0
0
0
0
0
0
0
0
0
0
0
0
0
0
0
0
0
0
0
0
0
0
0
0
0
0
0
0
0
0
0
0
0
0
0
0
0
0
0
0
0
0
0
0
0
0
0
0
0
0
0
0
0
0
0
0
0
0
0
0
0
0
0
0
0
0
0
0
0
0
0
0
0
0
0
0
0
0
0
0
0
0
0
0
0
0
0
0
0
0
0
0
0
0
0
0
0
0
0
0
0
0
0
0.9997583529390486
0.9997580903608854
0.9997577749557225
0.9997574103001808
0.9997569061799387
0.9997562763919484
0.9997555548960244
0.9997547668221877
0.9997539319688676
0.9997530683916267
0.9997521918953566
0.999751315745725
0.9997504509989139
0.9997496068739005
0.9997487910111857
0.9997480096883115
0.9997472680142945
0.9997465700992774
0.9997459191997293
0.9997453178436527
0.9997447679391978
0.9997442708690417
0.9997438275724577
0.9997434386167602
0.9997431042595429
0.9997428245028749
0.9997425991404388
0.9997424277984142
0.9997423099707782
0.9997422450495992
0.9997422323507982
0.9997422711358057
0.9997423606294895
0.999742500034689
0.9997426885436741
0.9997429253468153
0.9997432096387427
0.9997435406222452
0.9997439175101649
0.9997443395255046
0.999744805899979
0.9997453158712077
0.9997458686787523
0.999746463559173
0.9997470997402856
0.9997477764347695
0.9997484928332904
0.9997492480972612
0.9997500413513823
0.999750871676077
0.9997517380999278
0.9997526395922209
0.9997535750556856
0.9997545433195127
0.999755543132735
0.9997565731580268
0.9997576319659972
0.9997587180300259
0.9997598297216961
0.9997609653068682
0.9997621229424365
0.9997633006738067
0.9997644964331245
0.9997657080382854
0.9997669331927541
0.9997681694862084
0.9997694143960383
0.9997706652897032
0.9997719194279706
0.99977317396904
0.9997744259735625
0.999775672410557
0.9997769101642257
0.9997781360416628
0.9997793467814544
0.9997805390631574
0.9997817095176423
0.9997828547382869
0.999783971292997
0.9997850557370346
0.9997861046266204
0.9997871145332858
0.9997880820589389
0.9997890038516071
0.9997898766218245
0.9997906971596194
0.9997914623520644
0.9997921692013516
0.9997928148433511
0.999793396566624
0.9997939118318513
0.9997943582916577
0.9997947338108101
0.9997950364867829
0.999795264670697
0.9997954169886449
0.9997954923634506
0.9997954900369248
0.9997954095927161
0.999795250979895
0.9997950145374603
0.999794701020035
0.9997943116250824
0.999793848022103
0.9997933123843873
0.9997927074240627
0.9997920364313694
0.9997913033193021
0.9997905126750273
0.9997896698197549
0.9997887808789911
0.9997878528655035
0.9997868937783619
0.9997859127223797
0.9997849200475263
0.999783927503758
0.9997829484330685
0.9997819980719769
0.9997810937885027
0.9997802546529393
0.9997795007461824
0.9997788568251093
0.9997783555338985
0.9997780063565953
0.9997777050987048
0.9997774472647264
0
0
0.9997580060159063
0.999757922037537
0.9997577002440161
0.9997573513771876
0.9997568896773718
0.9997563292723339
0.9997556853214525
0.9997549763244411
0.9997542210900865
0.9997534360146415
0.9997526352589209
0.999751831087953
0.9997510340264595
0.999750252981785
0.9997494954304053
0.9997487676021036
0.9997480746421394
0.999747420753559
0.9997468093242168
0.9997462430393221
0.9997457239806316
0.9997452537137461
0.9997448333649355
0.9997444636887002
0.9997441451271132
0.9997438778618588
0.9997436618597645
0.9997434969124953
0.9997433826710054
0.9997433186752355
0.9997433043795094
0.9997433391740033
0.9997434224026469
0.999743553377768
0.9997437313917793
0.9997439557261711
0.9997442256580839
0.9997445404646879
0.9997448994256133
0.999745301823642
0.9997457469438736
0.9997462340715647
0.9997467624888186
0.9997473314703137
0.9997479402782262
0.9997485881565076
0.9997492743246603
0.999749997971146
0.9997507582465545
0.9997515542566452
0.9997523850553748
0.9997532496380017
0.9997541469343676
0.9997550758024263
0.9997560350221091
0.9997570232895847
0.9997580392119767
0.9997590813026058
0.9997601479767907
0.9997612375482671
0.9997623482262574
0.9997634781132348
0.9997646252034064
0.9997657873819514
0.9997669624250354
0.9997681480006237
0.9997693416701141
0.9997705408907996
0.9997717430191811
0.9997729453151316
0.9997741449469215
0.9997753389971092
0.9997765244692941
0.9997776982957262
0.9997788573457735
0.999779998435226
0.9997811183364298
0.9997822137892334
0.9997832815127207
0.9997843182177133
0.9997853206200098
0.9997862854543356
0.9997872094889708
0.9997880895410176
0.9997889224922772
0.9997897053056942
0.9997904350423338
0.9997911088788505
0.9997917241254178
0.9997922782440831
0.9997927688675204
0.9997931938181505
0.9997935511276244
0.9997938390566533
0.9997940561151967
0.9997942010830219
0.9997942730306874
0.9997942713410005
0.9997941957310542
0.999794046274967
0.9997938234275117
0.9997935280488581
0.9997931614307559
0.9997927253245296
0.9997922219713958
0.999791654135712
0.999791025141905
0.9997903389159674
0.9997896000325672
0.9997888137689628
0.9997879861671591
0.9997871241057315
0.9997862353823154
0.9997853288074127
0.9997844143139457
0.9997835030841361
0.9997826076712703
0.9997817420467389
0.9997809216728663
0.9997801637629287
0.9997794873184954
0.9997789101087267
0.9997784451996611
0.9997781036210207
0.9997778934642111
0.9997778208497167
0
0
0.9997578606779395
0.9997578722696363
0.9997577074094297
0.9997573820544197
0.999756959149195
0.9997564477955027
0.9997558597166799
0.9997552117925462
0.9997545203559067
0.999753799504191
0.9997530619468613
0.9997523189721654
0.9997515803797775
0.9997508545675773
0.9997501486874033
0.999749468778431
0.9997488198906785
0.9997482062025815
0.9997476311300029
0.9997470974244784
0.9997466072613903
0.9997461623189211
0.999745763848517
0.9997454127375475
0.9997451095648581
0.999744854649884
0.9997446480959125
0.9997444898280342
0.9997443796262535
0.9997443171541843
0.9997443019837142
0.99974433361597
0.9997444114989082
0.9997445350418138
0.9997447036269768
0.9997449166187998
0.9997451733705793
0.9997454732291825
0.9997458155378399
0.9997461996372602
0.9997466248652627
0.9997470905551148
0.9997475960327472
0.9997481406130244
0.9997487235952192
0.9997493442578433
0.9997500018529777
0.9997506956002233
0.9997514246804055
0.9997521882291371
0.9997529853303462
0.9997538150098646
0.999754676229171
0.9997555678793604
0.9997564887754199
0.9997574376508813
0.999758413152904
0.9997594138378505
0.9997604381674036
0.9997614845052679
0.9997625511145019
0.9997636361555082
0.9997647376847284
0.9997658536540573
0.9997669819110081
0.999768120199653
0.9997692661623514
0.9997704173422858
0.9997715711868154
0.9997727250516542
0.9997738762058846
0.9997750218378038
0.999776159061604
0.9997772849248813
0.9997783964169703
0.9997794904780842
0.9997805640092567
0.9997816138830597
0.9997826369550828
0.9997836300761445
0.9997845901052126
0.9997855139230027
0.9997863984462212
0.9997872406424232
0.9997880375454427
0.9997887862713662
0.9997894840350054
0.9997901281668387
0.9997907161303812
0.9997912455399535
0.999791714178821
0.9997921200176771
0.9997924612334548
0.9997927362284588
0.9997929436498223
0.9997930824093013
0.9997931517034484
0.9997931510342137
0.999793080230062
0.9997929394677184
0.9997927292946975
0.9997924506528157
0.9997921049029497
0.9997916938513558
0.9997912197779533
0.9997906854670386
0.9997900942409945
0.9997894499976311
0.9997887572518568
0.9997880211823764
0.9997872476841493
0.9997864434274875
0.9997856159244478
0.9997847736000567
0.9997839258654733
0.9997830831973662
0.99978225723614
0.9997814608055589
0.9997807077615712
0.9997800128809016
0.9997793926671714
0.9997788634933017
0.9997784353486585
0.9997781148046002
0.9997779640086135
0.9997779966531092
0
0
0.9997579933755154
0.9997579804238961
0.9997578080064895
0.9997575067217446
0.9997571083275686
0.9997566250956863
0.9997560752636193
0.9997554726884371
0.9997548301650151
0.9997541601131149
0.9997534740207605
0.9997527820191551
0.9997520930107923
0.9997514147684299
0.9997507540009596
0.9997501164341107
0.9997495069092125
0.9997489294790181
0.9997483874967875
0.9997478836991565
0.9997474202827616
0.9997469989741503
0.9997466210930611
0.9997462876094069
0.9997459991943565
0.999745756265907
0.9997455590293434
0.9997454075129646
0.9997453015994441
0.9997452410531551
0.9997452255437791
0.9997452546664805
0.9997453279589217
0.9997454449153806
0.9997456049981975
0.9997458076467943
0.9997460522844731
0.9997463383232161
0.9997466651666791
0.9997470322115688
0.9997474388475982
0.9997478844561852
0.9997483684080665
0.9997488900599871
0.9997494487506116
0.9997500437958029
0.9997506744834009
0.9997513400676253
0.9997520397632219
0.9997527727394591
0.9997535381140786
0.9997543349472897
0.9997551622358977
0.9997560189076463
0.9997569038158387
0.9997578157343177
0.9997587533528519
0.9997597152729927
0.9997607000044458
0.9997617059620091
0.9997627314631106
0.9997637747259888
0.9997648338685426
0.9997659069078875
0.9997669917606321
0.9997680862439113
0.9997691880771772
0.9997702948847799
0.9997714041993381
0.9997725134659141
0.9997736200469964
0.9997747212282945
0.9997758142253423
0.9997768961909046
0.9997779642231864
0.9997790153748223
0.9997800466626433
0.9997810550781943
0.9997820375989869
0.9997829912004608
0.9997839128686266
0.9997847996133636
0.9997856484823336
0.9997864565754849
0.9997872210601032
0.9997879391863767
0.9997886083034377
0.9997892258758402
0.9997897895004401
0.9997902969236446
0.9997907460589999
0.9997911350050845
0.9997914620637001
0.9997917257583344
0.9997919248529039
0.9997920583707784
0.9997921256141163
0.9997921261835528
0.9997920599983012
0.9997919273167672
0.9997917287577884
0.9997914653226623
0.9997911384181599
0.9997907498807647
0.999790302002427
0.9997897975581632
0.9997892398358622
0.9997886326686853
0.999787980470463
0.9997872882744481
0.9997865617755475
0.9997858073755728
0.9997850322315863
0.9997842443080162
0.9997834524285373
0.9997826663056665
0.9997818965522852
0.9997811547279482
0.9997804534139728
0.9997798057042542
0.9997792245592374
0.9997787235230126
0.9997783202004246
0.9997780255207191
0.9997778713773279
0.9997778878074147
0
0
0.9997583005647046
0.9997582195615439
0.9997580183951531
0.9997577151317789
0.9997573208914621
0.9997568534381419
0.9997563282932203
0.9997557565216759
0.9997551496513426
0.999754518633462
0.999753873381487
0.9997532228344962
0.9997525750188017
0.9997519370133123
0.9997513149840271
0.9997507142527395
0.999750139368749
0.9997495941789534
0.9997490818987593
0.9997486051811141
0.9997481661815802
0.999747766618786
0.9997474078301477
0.999747090822804
0.9997468163198111
0.9997465848017665
0.999746396544073
0.9997462516500902
0.9997461500804181
0.9997460916785574
0.9997460761931926
0.9997461032973274
0.9997461726045073
0.9997462836823343
0.999746436063502
0.9997466292545353
0.9997468627424466
0.999747135999495
0.9997474484862267
0.9997477996529803
0.9997481889400255
0.9997486157765021
0.9997490795783087
0.9997495797451004
0.9997501156565285
0.9997506866678676
0.9997512921051487
0.9997519312599186
0.9997526033837457
0.999753307682568
0.9997540433109883
0.9997548093665994
0.9997556048844337
0.9997564288316034
0.9997572801022121
0.9997581575125952
0.9997590597969558
0.9997599856034463
0.9997609334907465
0.9997619019251835
0.9997628892784323
0.999763893825838
0.999764913745388
0.9997659471173632
0.9997669919246983
0.9997680460540673
0.9997691072977175
0.9997701733560652
0.999771241841064
0.9997723102803602
0.9997733761222329
0.9997744367413297
0.9997754894451881
0.9997765314815502
0.999777560046446
0.999778572293054
0.9997795653413087
0.9997805362882448
0.9997814822190556
0.9997824002188417
0.9997832873850201
0.9997841408403659
0.999784957746656
0.9997857353188712
0.9997864708399309
0.9997871616759133
0.9997878052917291
0.9997883992672014
0.9997889413135227
0.9997894292900432
0.9997898612213639
0.9997902353146958
0.999790549977466
0.9997908038351462
0.9997909957492965
0.9997911248358187
0.9997911904834322
0.9997911923723986
0.9997911304935329
0.9997910051675687
0.9997908170649564
0.9997905672262078
0.9997902570829154
0.9997898884796097
0.9997894636966336
0.9997889854742201
0.9997884570379821
0.9997878821259659
0.9997872650173485
0.9997866105627733
0.999785924216303
0.9997852120684224
0.9997844808780749
0.9997837381011938
0.9997829919188548
0.9997822512607557
0.9997815257916088
0.9997808258255491
0.9997801623475477
0.9997795470458015
0.9997789918048795
0.9997785076150897
0.9997781098793903
0.9997778160478771
0.9997776373904138
0.9997775921234036
0
0
0.9997587249583069
0.9997585704732799
0.9997583242651379
0.9997579940727941
0.9997575900554591
0.9997571259469173
0.9997566119862797
0.9997560586773797
0.9997554761962089
0.9997548736458937
0.9997542595308888
0.9997536417252904
0.9997530273330709
0.9997524226709793
0.9997518333103005
0.999751264111936
0.9997507192685363
0.9997502023569204
0.9997497163941109
0.9997492638926226
0.9997488469141084
0.9997484671206558
0.999748125823014
0.9997478240253294
0.9997475624662457
0.9997473416563435
0.9997471619119737
0.9997470233855885
0.999746926092712
0.9997468699357125
0.9997468547245473
0.9997468801946628
0.99974694602223
0.9997470518368904
0.9997471972322015
0.9997473817739492
0.9997476050065066
0.9997478664574111
0.99974816564032
0.9997485020565137
0.9997488751950991
0.9997492845320696
0.9997497295283605
0.9997502096270512
0.9997507242498359
0.999751272792902
0.9997518546223257
0.9997524690691103
0.9997531154239628
0.9997537929319213
0.9997545007869166
0.9997552381263637
0.999756004025859
0.9997567974940624
0.9997576174678291
0.9997584628076623
0.9997593322935372
0.9997602246211575
0.9997611383986865
0.9997620721440056
0.9997630242825316
0.9997639931456392
0.9997649769697124
0.9997659738958614
0.999766981970325
0.9997679991455868
0.9997690232822185
0.9997700521514696
0.9997710834386185
0.9997721147470858
0.9997731436033285
0.9997741674625045
0.9997751837149185
0.9997761896932384
0.9997771826804736
0.9997781599187129
0.9997791186185977
0.999780055969517
0.9997809691505052
0.9997818553418119
0.9997827117371214
0.9997835355563895
0.9997843240592587
0.999785074559025
0.999785784437109
0.9997864511579959
0.9997870722845996
0.9997876454940164
0.9997881685936124
0.9997886395374159
0.9997890564427715
0.9997894176072151
0.9997897215255385
0.9997899669070165
0.9997901526927714
0.9997902780732606
0.999790342505884
0.9997903457327078
0.9997902877983308
0.9997901690679176
0.9997899902454426
0.9997897523922045
0.999789456945678
0.9997891057387854
0.9997887010196628
0.9997882454719865
0.9997877422359
0.9997871949295255
0.9997866076709678
0.9997859851004484
0.9997853324019693
0.9997846553239956
0.9997839601985264
0.9997832539543565
0.9997825441181316
0.9997818388077584
0.9997811467343879
0.9997804771451808
0.9997798396436495
0.9997792441352575
0.9997787013351715
0.9997782220001267
0.9997778164829222
0.9997774986414666
0.9997772788843263
0.9997771652053439
0
0
0.9997592367824666
0.9997590031656735
0.9997586996622
0.9997583311390699
0.9997579061333499
0.9997574326631641
0.9997569189513333
0.9997563740453407
0.9997558060291152
0.9997552225752853
0.9997546310160775
0.9997540381157406
0.9997534500316473
0.9997528723231978
0.9997523099444443
0.9997517672525115
0.9997512480376325
0.9997507555608512
0.9997502925945948
0.9997498614654774
0.9997494640978791
0.999749102056648
0.9997487765880135
0.9997484886582195
0.999748238989544
0.999748028093497
0.9997478563011085
0.9997477237903082
0.9997476306104341
0.999747576703967
0.9997475619255841
0.9997475860586761
0.9997476488294438
0.9997477499187383
0.9997478889717774
0.9997480656058977
0.99974827941649
0.9997485299812705
0.9997488168630345
0.9997491396110452
0.9997494977611909
0.9997498908350656
0.9997503183380899
0.9997507797568225
0.9997512745555702
0.9997518021724299
0.9997523620148688
0.9997529534549533
0.9997535758243276
0.9997542284090425
0.9997549104443195
0.9997556211093349
0.999756359522107
0.9997571247345551
0.9997579157277962
0.9997587314077517
0.9997595706011081
0.9997604320516956
0.9997613144173273
0.9997622162671478
0.9997631360795246
0.9997640722405314
0.999765023043039
0.9997659866864639
0.9997669612771818
0.9997679448296425
0.9997689352682002
0.9997699304296777
0.9997709280666717
0.9997719258516256
0.9997729213816531
0.999773912184139
0.9997748957231
0.9997758694063134
0.9997768305931982
0.9997777766034456
0.9997787047263786
0.9997796122310244
0.9997804963768812
0.9997813544253479
0.9997821836517946
0.999782981358238
0.9997837448865836
0.9997844716324075
0.999785159059222
0.9997858047131958
0.9997864062382726
0.999786961391652
0.9997874680595761
0.9997879242733836
0.9997883282257787
0.9997886782872731
0.9997889730227549
0.999789211208149
0.9997893918471303
0.9997895141878591
0.9997895777397166
0.9997895822900167
0.9997895279206942
0.9997894150249506
0.9997892443238765
0.9997890168830472
0.9997887341291063
0.9997883978663382
0.9997880102932177
0.9997875740189015
0.9997870920795655
0.9997865679544005
0.9997860055810026
0.9997854093697637
0.9997847842165065
0.999784135511906
0.9997834691465901
0.9997827915118548
0.9997821094917445
0.9997814304328125
0.9997807620997295
0.999780112652961
0.9997794905854215
0.9997789044715983
0.9997783630608802
0.9997778758775331
0.9997774514505796
0.9997770980528723
0.9997768245260731
0.9997766359346951
0
0
0.9997598095556826
0.9997594928012893
0.9997591257595297
0.9997587120473308
0.9997582563343546
0.9997577640330038
0.9997572418486727
0.999756696464354
0.999756134347836
0.9997555619677343
0.9997549854259373
0.9997544104137936
0.9997538422076329
0.9997532856182272
0.9997527449644943
0.9997522240792477
0.9997517263248471
0.9997512546149113
0.9997508114428626
0.9997503989146868
0.9997500187832894
0.9997496724831485
0.9997493611644296
0.9997490857258496
0.9997488468457756
0.9997486450112434
0.9997484805447118
0.9997483536284529
0.9997482643265392
0.9997482126044507
0.9997481983463494
0.9997482213701016
0.9997482814401398
0.9997483782782797
0.9997485115726065
0.9997486809845559
0.9997488861543199
0.9997491267047125
0.9997494022436174
0.9997497123651645
0.9997500566497471
0.9997504346630265
0.9997508459540347
0.9997512900525057
0.9997517664655428
0.9997522746737445
0.9997528141268892
0.9997533842392862
0.9997539843848807
0.9997546138922181
0.999755272039341
0.9997559580487095
0.9997566710822117
0.9997574102363433
0.9997581745376167
0.9997589629382634
0.9997597743122826
0.9997606074518941
0.9997614610644375
0.9997623337697664
0.9997632240981763
0.9997641304889028
0.9997650512892234
0.9997659847541974
0.9997669290470633
0.9997678822403264
0.9997688423175481
0.9997698071758627
0.9997707746292308
0.9997717424124424
0.9997727081858763
0.9997736695410223
0.999774624006765
0.9997755690564254
0.999776502115557
0.9997774205704856
0.9997783217775705
0.9997792030731883
0.9997800617843929
0.9997808952402447
0.9997817007837696
0.9997824757845208
0.9997832176516988
0.999783923847795
0.9997845919027151
0.999785219428331
0.9997858041334179
0.999786343838922
0.9997868364935066
0.9997872801893251
0.9997876731779626
0.9997880138864955
0.9997883009336127
0.999788533145751
0.9997887095731868
0.9997888295060446
0.9997888924901743
0.9997888983428559
0.9997888471682931
0.9997887393728615
0.9997885756800753
0.9997883571452315
0.999788085169688
0.9997877615147134
0.9997873883148172
0.9997869680904311
0.9997865037597614
0.9997859986495181
0.9997854565041031
0.9997848814926426
0.9997842782132553
0.9997836516935256
0.9997830073848785
0.9997823511487904
0.9997816892366268
0.9997810282603159
0.999780375132319
0.9997797369853827
0.9997791211503472
0.9997785351036039
0.9997779860973239
0.9997774814185435
0.9997770282201532
0.9997766322347947
0.9997762983900345
0.9997760304560207
0
0
0.9997604193814963
0.999760018846425
0.9997595855489217
0.9997591214124741
0.9997586284084135
0.9997581105644291
0.9997575725690807
0.9997570193158754
0.9997564560109654
0.9997558878242859
0.999755319709385
0.9997547564044568
0.9997542023424124
0.9997536615954715
0.9997531378571911
0.9997526344344575
0.999752154247927
0.9997516998440605
0.9997512734146049
0.9997508768201124
0.9997505116160954
0.9997501790806609
0.9997498802424915
0.99974961590834
0.9997493866894852
0.9997491930267651
0.9997490352138985
0.9997489134189376
0.9997488277037394
0.9997487780414263
0.9997487643318349
0.9997487864149897
0.9997488440826595
0.9997489370880802
0.9997490651539264
0.9997492279786424
0.999749425241234
0.9997496566046435
0.9997499217178076
0.9997502202165359
0.9997505517233086
0.9997509158461246
0.999751312176504
0.999751740286764
0.9997521997266667
0.9997526900195599
0.9997532106580937
0.9997537610996219
0.999754340761373
0.9997549490154833
0.9997555851839655
0.9997562485337049
0.9997569382715383
0.9997576535394982
0.9997583934102781
0.9997591568829842
0.9997599428792212
0.999760750239572
0.9997615777205136
0.9997624239918159
0.9997632876344611
0.9997641671391261
0.9997650609052559
0.999765967240764
0.9997668843623851
0.999767810396706
0.999768743381896
0.9997696812701544
0.9997706219308924
0.999771563154664
0.9997725026578435
0.9997734380880742
0.999774367030468
0.9997752870145747
0.9997761955220967
0.9997770899953555
0.9997779678464821
0.9997788264673249
0.9997796632400432
0.9997804755483686
0.9997812607894933
0.9997820163865604
0.9997827398017097
0.9997834285496395
0.9997840802116359
0.99978469245002
0.9997852630229569
0.9997857897995731
0.9997862707753211
0.9997867040875291
0.9997870880310727
0.999787421074107
0.999787701873792
0.9997879292919424
0.9997881024105453
0.9997882205470716
0.999788283269524
0.9997882904111526
0.9997882420847738
0.9997881386966294
0.999787980959707
0.9997877699064489
0.9997875069007489
0.9997871936491237
0.9997868322109076
0.9997864250072696
0.9997859748287873
0.9997854848412242
0.9997849585890495
0.9997843999960256
0.9997838133619198
0.9997832033545341
0.9997825749961012
0.9997819336411559
0.999781284942488
0.9997806348098085
0.9997799893613215
0.9997793548413769
0.9997787375104267
0.9997781436412435
0.9997775793357058
0.9997770501892326
0.9997765614227032
0.9997761174430082
0.9997757204150506
0.9997753723804725
0
0
0.9997610467640431
0.9997605640108331
0.9997600634335425
0.9997595455776584
0.9997590110755389
0.9997584625242228
0.9997579029370234
0.9997573359669659
0.9997567655614525
0.9997561957043124
0.999755630362908
0.9997550733815461
0.9997545283881011
0.9997539987575864
0.9997534875811909
0.9997529976455346
0.9997525314272275
0.9997520910976486
0.9997516785338502
0.9997512953344757
0.9997509428392678
0.9997506221506113
0.9997503341560082
0.9997500795507266
0.999749858860008
0.9997496724603744
0.9997495205997056
0.9997494034158645
0.9997493209537232
0.9997492731805099
0.9997492599994329
0.9997492812615927
0.9997493367761964
0.9997494263191425
0.9997495496400286
0.9997497064676707
0.9997498965142182
0.9997501194779708
0.9997503750449804
0.9997506628895626
0.9997509826738048
0.9997513340461867
0.9997517166394155
0.9997521300675761
0.999752573922699
0.9997530477708411
0.9997535511477755
0.9997540835543827
0.9997546444518226
0.9997552332565772
0.9997558493354392
0.9997564920005211
0.9997571605043523
0.9997578540351356
0.9997585717122195
0.9997593125818491
0.9997600756132422
0.9997608596950552
0.9997616636322681
0.9997624861435501
0.9997633258591344
0.9997641813192448
0.9997650509731091
0.9997659331785923
0.999766826202471
0.9997677282213894
0.9997686373235021
0.9997695515108399
0.9997704687024034
0.9997713867380085
0.9997723033828803
0.9997732163330184
0.999774123221325
0.9997750216244957
0.9997759090706727
0.9997767830478517
0.9997776410130186
0.9997784804020133
0.9997792986400831
0.999780093153109
0.9997808613794672
0.9997816007824898
0.999782308863483
0.9997829831752587
0.9997836213361248
0.99978422104428
0.9997847800925581
0.9997852963834523
0.9997857679443559
0.9997861929429512
0.99978656970267
0.9997868967181531
0.9997871726706336
0.9997873964431557
0.9997875671355634
0.9997876840791592
0.9997877468509652
0.999787755287487
0.9997877094978982
0.9997876098765452
0.9997874571146723
0.9997872522112464
0.9997869964827517
0.9997866915717877
0.9997863394542775
0.999785942445037
0.9997855032013916
0.9997850247244208
0.9997845103573346
0.9997839637803696
0.9997833890013592
0.9997827903407324
0.9997821724100081
0.9997815400833578
0.9997808984588821
0.9997802528054869
0.9997796085022975
0.9997789709774809
0.9997783455942411
0.9997777375335735
0.9997771517389212
0.9997765926605032
0.9997760639096404
0.9997755685140229
0.9997751072697243
0.9997746808176736
0
0
0.9997616759745125
0.9997611133215998
0.9997605455564561
0.999759972411031
0.9997593936373317
0.999758810574049
0.9997582250918781
0.9997576397525935
0.9997570573748662
0.9997564809659198
0.9997559135965122
0.9997553582791878
0.9997548179064393
0.9997542952022733
0.9997537926810469
0.9997533126255026
0.9997528570765459
0.9997524278308283
0.9997520264454212
0.9997516542480765
0.9997513123511279
0.999751001667787
0.9997507229298886
0.9997504767062826
0.999750263421216
0.9997500833722379
0.9997499367472632
0.9997498236405501
0.9997497440673895
0.9997496979774178
0.9997496852664586
0.9997497057868877
0.9997497593565099
0.9997498457659844
0.9997499647848412
0.9997501161661542
0.9997502996499347
0.9997505149653394
0.9997507618317658
0.9997510399589405
0.9997513490460783
0.9997516887802221
0.9997520588338465
0.9997524588618286
0.9997528884978679
0.9997533473504608
0.9997538349984989
0.9997543509865929
0.9997548948201924
0.9997554659605858
0.9997560638198488
0.9997566877558225
0.9997573370671737
0.9997580109886175
0.9997587086863465
0.9997594292537372
0.9997601717073724
0.9997609349834494
0.9997617179345961
0.9997625193271644
0.9997633378390199
0.9997641720578874
0.9997650204802631
0.9997658815109568
0.9997667534632612
0.9997676345598052
0.9997685229340953
0.9997694166327773
0.999770313618629
0.9997712117743108
0.9997721089068695
0.9997730027530219
0.999773890985204
0.999774771218402
0.9997756410177477
0.9997764979068829
0.9997773393770657
0.9997781628970113
0.9997789659234401
0.9997797459123012
0.9997805003306444
0.9997812266690962
0.9997819224548984
0.9997825852654564
0.9997832127423459
0.999783802605715
0.9997843526690146
0.9997848608539931
0.9997853252058765
0.9997857439086522
0.9997861153003809
0.999786437888445
0.9997867103646448
0.9997869316200481
0.9997871007594998
0.9997872171156899
0.999787280262675
0.9997872900287506
0.9997872465085557
0.9997871500742908
0.9997870013859208
0.9997868014002096
0.9997865513784281
0.9997862528925358
0.9997859078296051
0.9997855183942104
0.9997850871084414
0.99978461680912
0.9997841106416894
0.9997835720501272
0.9997830047622296
0.9997824127693452
0.9997818002991001
0.9997811717802365
0.9997805317997652
0.999779885049438
0.9997792362550606
0.9997785901029025
0.9997779511574981
0.9997773237251237
0.9997767117199883
0.9997761185973079
0.9997755468995104
0.9997749984501454
0.9997744731735684
0.9997739708965121
0
0
0.9997622938634305
0.9997616539605721
0.9997610199235435
0.9997603909937747
0.9997597662180063
0.9997591460444679
0.9997585314730222
0.9997579241028184
0.9997573258448811
0.9997567388623508
0.9997561654133137
0.999755607771236
0.9997550681600393
0.9997545486966422
0.999754051353146
0.9997535779330493
0.9997531300558105
0.9997527091502202
0.9997523164549381
0.9997519530240915
0.9997516197366
0.9997513173082214
0.9997510463053142
0.9997508071595375
0.9997506001828647
0.9997504255824448
0.99975028347493
0.9997501739000063
0.999750096832905
0.9997500521957845
0.999750039867869
0.9997500596943104
0.9997501114937528
0.9997501950646092
0.999750310190078
0.9997504566419505
0.9997506341832597
0.9997508425698471
0.9997510815509116
0.9997513508686314
0.9997516502569311
0.9997519794394923
0.9997523381270759
0.9997527260142616
0.999753142775677
0.9997535880618008
0.9997540614944286
0.9997545626618788
0.999755091114004
0.9997556463571023
0.9997562278487784
0.9997568349928386
0.9997574671342712
0.9997581235543873
0.9997588034661637
0.9997595060098614
0.9997602302489544
0.9997609751664367
0.999761739661535
0.9997625225468885
0.9997633225462267
0.99976413829259
0.9997649683271234
0.999765811098488
0.9997666649629073
0.9997675281848944
0.9997683989386679
0.9997692753102964
0.9997701553005799
0.999771036828692
0.9997719177365896
0.9997727957942119
0.9997736687054571
0.9997745341149566
0.999775389615626
0.9997762327570038
0.9997770610543448
0.9997778719984681
0.9997786630663229
0.9997794317322497
0.9997801754798986
0.9997808918147638
0.9997815782772875
0.9997822324564797
0.9997828520039898
0.9997834346485718
0.9997839782108637
0.9997844806184117
0.9997849399208453
0.9997853543051272
0.9997857221107745
0.9997860418449603
0.9997863121973863
0.999786532054826
0.9997867005152207
0.9997868169012162
0.9997868807730181
0.999786891940436
0.9997868504739899
0.9997867567149235
0.9997866112839867
0.999786415088802
0.9997861693296349
0.9997858755033455
0.9997855354052729
0.9997851511287559
0.9997847250619336
0.9997842598814147
0.9997837585423307
0.9997832242641503
0.9997826605115503
0.9997820709696865
0.9997814595130423
0.9997808301663295
0.999780187056613
0.9997795343581704
0.9997788762252792
0.9997782167085479
0.9997775596682091
0.9997769086782513
0.9997762668541328
0.9997756367912963
0.9997750202506932
0.9997744182354017
0.9997738300056663
0.9997732549240977
0
0
0.9997628892283046
0.99976217491263
0.9997614760391382
0.9997607915050307
0.9997601198453117
0.9997594608783537