# vtk DataFile Version 2.0
2D-ADE data file 
ASCII
DATASET RECTILINEAR_GRID
DIMENSIONS 128 128 1 
X_COORDINATES 128 int
0 1 2 3 4 5 6 7 8 9 10 11 12 13 14 15 16 17 18 19 20 21 22 23 24 25 26 27 28 29 30 31 32 33 34 35 36 37 38 39 40 41 42 43 44 45 46 47 48 49 50 51 52 53 54 55 56 57 58 59 60 61 62 63 64 65 66 67 68 69 70 71 72 73 74 75 76 77 78 79 80 81 82 83 84 85 86 87 88 89 90 91 92 93 94 95 96 97 98 99 100 101 102 103 104 105 106 107 108 109 110 111 112 113 114 115 116 117 118 119 120 121 122 123 124 125 126 127 
Y_COORDINATES 128 int
0 1 2 3 4 5 6 7 8 9 10 11 12 13 14 15 16 17 18 19 20 21 22 23 24 25 26 27 28 29 30 31 32 33 34 35 36 37 38 39 40 41 42 43 44 45 46 47 48 49 50 51 52 53 54 55 56 57 58 59 60 61 62 63 64 65 66 67 68 69 70 71 72 73 74 75 76 77 78 79 80 81 82 83 84 85 86 87 88 89 90 91 92 93 94 95 96 97 98 99 100 101 102 103 104 105 106 107 108 109 110 111 112 113 114 115 116 117 118 119 120 121 122 123 124 125 126 127 
Z_COORDINATES 1 int
0
POINT_DATA 16384
SCALARS density double
LOOKUP_TABLE default
0
0
0
0
0
0
0
0
0
0
0
0
0
0
0
0
0
0
0
0
0
0
0
0
0
0
0
0
0
0
0
0
0
0
0
0
0
0
0
0
0
0
0
0
0
0
0
0
0
0
0
0
0
0
0
0
0
0
0
0
0
0
0
0
0
0
0
0
0
0
0
0
0
0
0
0
0
0
0
0
0
0
0
0
0
0
0
0
0
0
0
0
0
0
0
0
0
0
0
0
0
0
0
0
0
0
0
0
0
0
0
0
0
0
0
0
0
0
0
0
0
0
0
0
0
0
0
0
0
0.9997065007460135
0.9997066199857219
0.9997065584612633
0.9997062658473107
0.9997057944751266
0.9997051896267726
0.9997044817631358
0.9997036974810598
0.9997028609767149
0.9997019930717458
0.9997011113865975
0.9997002310363183
0.9996993650639414
0.9996985247281721
0.9996977197534416
0.9996969585499799
0.9996962483947474
0.9996955955818934
0.9996950055507992
0.9996944829959122
0.9996940319610751
0.9996936559207862
0.999693357850383
0.9996931402866964
0.9996930053804229
0.9996929549412559
0.9996929904766476
0.9996931132249371
0.9996933241834809
0.9996936241323379
0.9996940136539946
0.999694493149565
0.999695062851856
0.9996957228356468
0.999696473025507
0.9996973132014407
0.9996982430026292
0.9996992619295142
0.99970036934445
0.9997015644711363
0.9997028463930279
0.9997042140508992
0.9997056662397349
0.999707201605111
0.999708818639203
0.9997105156765733
0.9997122908898562
0.9997141422854733
0.9997160676994852
0.9997180647936926
0.999720131052083
0.9997222637777239
0.9997244600901796
0.9997267169235459
0.9997290310251685
0.9997313989551232
0.99973381708652
0.999736281606692
0.9997387885193253
0.9997413336475772
0.9997439126382304
0.9997465209669232
0.9997491539444837
0.9997518067244073
0.999754474311489
0.9997571515716358
0.9997598332428655
0.9997625139474992
0.9997651882055395
0.999767850449229
0.9997704950387716
0.9997731162791857
0.9997757084382595
0.9997782657655659
0.9997807825124824
0.9997832529531571
0.9997856714063514
0.9997880322580811
0.9997903299849652
0.9997925591781883
0.9997947145679738
0.9997967910484478
0.9997987837027855
0.9998006878285048
0.9998024989627835
0.9998042129076657
0.9998058257550217
0.9998073339111305
0.9998087341207536
0.9998100234905718
0.999811199511875
0.9998122600823942
0.9998132035271896
0.9998140286185244
0.9998147345946727
0.9998153211776555
0.9998157885899002
0.9998161375698944
0.9998163693869215
0.9998164858550274
0.9998164893464279
0.9998163828046305
0.9998161697576258
0.9998158543315895
0.9998154412656576
0.9998149359284564
0.9998143443372434
0.9998136731806951
0.9998129298466042
0.9998121224560435
0.9998112599059573
0.9998103519224993
0.9998094091274768
0.9998084431214431
0.9998074665900595
0.9998064934408849
0.9998055389570483
0.999804619970646
0.9998037551470105
0.9998029655141882
0.9998022743925552
0.9998017061046981
0.9998012865795955
0.9998010543926451
0.999801051336947
0.9998012127958975
0
0
0.999706564474119
0.9997066125960212
0.9997065134090669
0.999706245204099
0.9997058347856826
0.9997053012935664
0.9997046713879459
0.9997039689835425
0.9997032152275285
0.99970242857616
0.9997016253834736
0.9997008199712807
0.9997000248424123
0.9996992509103644
0.9996985077102069
0.9996978035697758
0.9996971457590014
0.9996965406202291
0.9996959936815123
0.9996955097548123
0.999695093021479
0.9996947471067507
0.9996944751446714
0.9996942798346146
0.9996941634904108
0.999694128082945
0.9996941752769397
0.9996943064625706
0.9996945227824533
0.9996948251544994
0.9996952142910732
0.9996956907148414
0.9996962547716676
0.999696906640881
0.9996976463432055
0.9996984737466321
0.9996993885704726
0.9997003903878375
0.9997014786267439
0.9997026525700591
0.9997039113544642
0.9997052539686094
0.9997066792506257
0.9997081858851444
0.9997097723999675
0.9997114371625236
0.9997131783762288
0.9997149940768839
0.9997168821292003
0.9997188402235758
0.9997208658732042
0.9997229564116165
0.999725108990739
0.9997273205795415
0.9997295879633542
0.9997319077439237
0.9997342763402598
0.9997366899903457
0.9997391447537527
0.9997416365152122
0.9997441609891832
0.9997467137254584
0.9997492901158334
0.9997518854018695
0.9997544946837698
0.9997571129303789
0.999759734990321
0.9997623556042744
0.9997649694183736
0.9997675709987338
0.9997701548470734
0.999772715417409
0.9997752471337831
0.9997777444089908
0.9997802016642405
0.9997826133496982
0.9997849739658389
0.9997872780855337
0.9997895203767813
0.9997916956259921
0.9997937987617208
0.9997958248787411
0.9997977692623481
0.9997996274127634
0.9998013950695236
0.9998030682357216
0.9998046432019791
0.9998061165700131
0.9998074852756871
0.9998087466114138
0.9998098982478146
0.9998109382545257
0.9998118651200772
0.9998126777707727
0.9998133755885278
0.9998139584276561
0.9998144266306068
0.9998147810427068
0.9998150230259975
0.9998151544722963
0.9998151778156733
0.9998150960445877
0.999814912714
0.9998146319578475
0.9998142585023763
0.9998137976809043
0.9998132554507343
0.9998126384130558
0.9998119538368486
0.9998112096879461
0.9998104146646013
0.9998095782411105
0.9998087107215172
0.9998078233047207
0.9998069281618528
0.9998060385267814
0.9998051688142674
0.9998043347429216
0.9998035534211157
0.9998028432606433
0.9998022243317278
0.9998017182312443
0.9998013476584525
0.9998011261059889
0.9998010701033736
0.999801149096746
0
0
0.999706733718442
0.9997067393893635
0.9997066137771485
0.999706357638406
0.9997059784903393
0.9997054904557952
0.9997049167827962
0.9997042767218562
0.9997035880847696
0.9997028673177839
0.9997021293602291
0.9997013874455536
0.999700653300527
0.9996999373100949
0.9996992486527546
0.9996985954230395
0.9996979847518621
0.9996974229146041
0.9996969154266737
0.9996964671281617
0.9996960822590124
0.9996957645254779
0.9996955171586682
0.9996953429660259
0.999695244376438
0.9996952234796289
0.9996952820603966
0.9996954216282095
0.9996956434426145
0.9996959485348705
0.9996963377261852
0.9996968116428948
0.9996973707289052
0.9996980152556805
0.9996987453300431
0.9996995609000496
0.9997004617591493
0.9997014475488644
0.9997025177601726
0.9997036717337937
0.9997049086595484
0.9997062275749545
0.9997076273632163
0.9997091067507523
0.9997106643043951
0.9997122984283958
0.9997140073613439
0.9997157891731301
0.9997176417620441
0.9997195628521168
0.9997215499907911
0.9997236005470218
0.99972571170987
0.9997278804876836
0.9997301037079209
0.999732378017696
0.9997346998850918
0.9997370656013088
0.99973947128369
0.9997419128796746
0.9997443861717122
0.9997468867831787
0.9997494101853189
0.9997519517052439
0.9997545065349945
0.9997570697416899
0.9997596362787629
0.9997622009982845
0.9997647586643684
0.9997673039676421
0.9997698315407645
0.9997723359749603
0.9997748118375358
0.9997772536903308
0.9997796561090538
0.9997820137034421
0.9997843211381741
0.9997865731544637
0.9997887645922428
0.9997908904128472
0.999792945722103
0.9997949257937074
0.9997968260927921
0.9997986422995541
0.9998003703328329
0.9998020063735102
0.9998035468876117
0.9998049886489876
0.9998063287614527
0.9998075646802735
0.9998086942329012
0.9998097156388444
0.9998106275286163
0.9998114289616793
0.9998121194433505
0.9998126989406438
0.9998131678970599
0.9998135272463574
0.9998137784253853
0.9998139233860849
0.9998139646068279
0.9998139051032915
0.9998137484391446
0.9998134987368665
0.9998131606891018
0.999812739571011
0.9998122412541901
0.9998116722227657
0.9998110395924173
0.9998103511331083
0.999809615296314
0.9998088412473665
0.999808038904054
0.9998072189825858
0.9998063930499089
0.9998055735712439
0.9998047739614664
0.9998040086549227
0.9998032931949122
0.9998026439119104
0.9998020776175304
0.9998016115634208
0.999801265803598
0.9998010500979644
0.9998009644159366
0.9998010044066357
0
0
0.9997070189931883
0.9997069999960774
0.9997068517059753
0.9997065833414629
0.999706211371886
0.9997057498345959
0.9997052135790234
0.999704617762122
0.9997039781482351
0.9997033092115215
0.9997026241209295
0.9997019348513652
0.999701252242926
0.9997005860134744
0.9996999448412107
0.9996993364608375
0.999698767753115
0.9996982448263846
0.9996977730933301
0.9996973573416887
0.9996970017982337
0.9996967101862214
0.999696485776787
0.9996963314346922
0.9996962496588206
0.999696242617838
0.999696312181407
0.9996964599473495
0.9996966872650928
0.9996969952557458
0.9996973848291035
0.9996978566978768
0.9996984113894138
0.9996990492551713
0.9996997704781659
0.999700575078639
0.999701462918134
0.9997024337021928
0.9997034869818455
0.9997046221540798
0.999705838461442
0.9997071349909346
0.9997085106723441
0.9997099642761491
0.999711494411126
0.9997130995217823
0.9997147778857246
0.9997165276110785
0.9997183466340502
0.999720232716738
0.9997221834452681
0.9997241962283545
0.9997262682963478
0.9997283967008521
0.9997305783149776
0.9997328098342916
0.9997350877785193
0.9997374084940588
0.9997397681573449
0.9997421627791137
0.9997445882095998
0.9997470401447047
0.9997495141331558
0.9997520055846837
0.9997545097792323
0.9997570218772112
0.9997595369307959
0.9997620498962769
0.9997645556474403
0.9997670489899753
0.9997695246768822
0.9997719774248492
0.9997744019315662
0.9997767928939243
0.9997791450270573
0.9997814530841559
0.999783711876994
0.9997859162970842
0.9997880613373866
0.9997901421144725
0.9997921538910488
0.9997940920987418
0.9997959523610234
0.999797730516175
0.9997994226401636
0.9998010250693143
0.9998025344226622
0.9998039476238547
0.9998052619225005
0.9998064749148438
0.9998075845636678
0.9998085892173258
0.9998094876278273
0.9998102789679014
0.9998109628470064
0.999811539326236
0.9998120089321411
0.9998123726694775
0.9998126320329426
0.9998127890179841
0.9998128461308156
0.9998128063977979
0.9998126733744016
0.9998124511540042
0.9998121443768286
0.9998117582393664
0.9998112985046894
0.9998107715140631
0.9998101842002869
0.999809544103178
0.9998088593876756
0.9998081388647005
0.9998073920140196
0.9998066290075792
0.9998058607361561
0.9998050988374634
0.999804355705275
0.9998036444228592
0.9998029787362068
0.9998023730815165
0.9998018424867934
0.9998014005828458
0.9998010598133401
0.999800831373096
0.9998007293990165
0.9998007593797786
0
0
0.9997074450418993
0.9997073721307661
0.9997071856358197
0.9997068968643416
0.9997065212486341
0.9997060696812822
0.9997055540666646
0.9997049876609859
0.9997043835217319
0.9997037538929027
0.9997031103769387
0.9997024637455149
0.9997018238453703
0.9997011996151755
0.9997005991431157
0.9997000297170903
0.9996994978804632
0.9996990094925523
0.9996985697885024
0.9996981834354666
0.999697854584863
0.9996975869205733
0.9996973837028669
0.9996972478080411
0.999697181763921
0.9996971877814305
0.9996972677824586
0.9996974234242746
0.9996976561207268
0.999697967060491
0.9996983572225893
0.9996988273894394
0.9996993781576339
0.9997000099466887
0.9997007230059495
0.9997015174198676
0.9997023931118171
0.9997033498466494
0.9997043872321336
0.999705504719463
0.9997067016029573
0.9997079770191291
0.9997093299452251
0.9997107591973906
0.9997122634285672
0.999713841126242
0.9997154906101562
0.9997172100300815
0.9997189973637441
0.9997208504150097
0.9997227668123929
0.9997247440079883
0.999726779276885
0.9997288697171418
0.999731012250384
0.9997332036230854
0.9997354404085836
0.9997377190098867
0.9997400356633124
0.9997423864429965
0.999744767266317
0.9997471739002529
0.9997496019687092
0.9997520469608302
0.9997545042403095
0.9997569690557103
0.9997594365518027
0.9997619017819036
0.9997643597212257
0.9997668052812052
0.999769233324797
0.9997716386826998
0.9997740161704792
0.9997763606065404
0.9997786668309009
0.999780929724704
0.9997831442304023
0.9997853053725372
0.999787408279035
0.9997894482029247
0.9997914205443843
0.9997933208730136
0.9997951449502208
0.9997968887516175
0.9997985484893018
0.9998001206339096
0.9998016019363201
0.999802989448894
0.9998042805461309
0.9998054729446297
0.9998065647222565
0.9998075543364126
0.9998084406413283
0.9998092229043045
0.99980990082085
0.9998104745286729
0.9998109446205213
0.9998113121558638
0.9998115786714658
0.9998117461908936
0.9998118172330721
0.9998117948199813
0.9998116824836772
0.999811484272793
0.9998112047587506
0.9998108490418983
0.9998104227578211
0.999809932084058
0.9998093837474368
0.9998087850320513
0.9998081437877743
0.999807468439198
0.9998067679948562
0.9998060520537108
0.9998053308037653
0.9998046150121631
0.9998039160204859
0.9998032456982601
0.9998026162865928
0.9998020401515806
0.9998015299401342
0.9998010979714379
0.9998007547565347
0.9998005092785881
0.9998003768950948
0.9998003678237395
0
0
0.9997079844239035
0.9997078392031395
0.9997076031362897
0.9997072845519808
0.9997068928911952
0.9997064378812064
0.999705930337726
0.9997053809330267
0.9997048002386673
0.9997041988173663
0.9997035868222306
0.9997029737434205
0.9997023683952704
0.9997017789107306
0.9997012127342018
0.9997006766391446
0.9997001767654154
0.9996997186607075
0.9996993073225786
0.999698947240729
0.9996986424383373
0.9996983965111972
0.9996982126640734
0.9996980937441045
0.9996980422711527
0.9996980604651046
0.9996981502701838
0.9996983133764181
0.9996985512383871
0.9996988650914389
0.9996992559655393
0.9996997246969433
0.9997002719378599
0.9997008981643047
0.9997016036822934
0.9997023886325727
0.999703252994027
0.9997041965859452
0.9997052190692719
0.9997063199470189
0.999707498563945
0.9997087541056645
0.9997100855972852
0.9997114919017195
0.9997129717177607
0.9997145235780495
0.9997161458470167
0.9997178367189202
0.9997195942160398
0.999721416187142
0.9997233003062758
0.9997252440719907
0.9997272448070332
0.999729299658602
0.9997314055992131
0.999733559428238
0.9997357577741625
0.9997379970976197
0.9997402736952349
0.9997425837043248
0.9997449231084813
0.9997472877440754
0.9997496733076948
0.9997520753645478
0.9997544893578342
0.9997569106191019
0.999759334379583
0.9997617557825157
0.9997641698964314
0.9997665717294022
0.9997689562442172
0.9997713183744626
0.9997736530414665
0.999775955172067
0.9997782197171484
0.9997804416708878
0.9997826160906452
0.9997847381174219
0.9997868029968079
0.9997888061003233
0.9997907429470647
0.9997926092255529
0.9997944008156686
0.9997961138105769
0.9997977445385113
0.9997992895843084
0.9998007458105699
0.9998021103783353
0.9998033807671457
0.999804554794387
0.9998056306338073
0.9998066068331022
0.9998074823304832
0.9998082564701476
0.9998089290165868
0.9998095001676813
0.9998099705665554
0.9998103413121749
0.9998106139687041
0.9998107905736441
0.9998108736448162
0.9998108661862578
0.9998107716931336
0.9998105941557653
0.9998103380629145
0.9998100084044272
0.9998096106733574
0.9998091508676028
0.99980863549108
0.9998080715543327
0.9998074665741968
0.9998068285714121
0.9998061660653045
0.9998054880654741
0.999804804057597
0.9998041239684228
0.9998034581066472
0.9998028171085158
0.9998022118868849
0.9998016533446107
0.9998011519731997
0.9998007179827785
0.9998003616733897
0.9998000919473943
0.9997999182559861
0.9997998490715522
0
0
0.9997086055298201
0.9997083817153782
0.9997080879999728
0.9997077292453409
0.9997073118111595
0.999706843887124
0.9997063340454395
0.9997057909274646
0.9997052235183894
0.9997046407996903
0.9997040514405781
0.999703463733217
0.9997028855160187
0.9997023241001972
0.9997017862483287
0.9997012781815188
0.999700805594639
0.9997003736779132
0.9996999871446898
0.9996996502620744
0.9996993668819283
0.9996991404712247
0.9996989741411375
0.9996988706743807
0.9996988325504395
0.9996988619685668
0.9996989608684668
0.9996991309487144
0.9996993736829322
0.9996996903338549
0.9997000819653651
0.9997005494526598
0.9997010934906564
0.9997017146008154
0.9997024131364873
0.9997031892869676
0.9997040430803613
0.9997049743854399
0.9997059829125834
0.9997070682139754
0.9997082296831477
0.9997094665540214
0.9997107778995356
0.9997121626299981
0.9997136194912437
0.9997151470627171
0.9997167437555599
0.999718407810813
0.999720137297794
0.9997219301127597
0.9997237839779002
0.9997256964407663
0.9997276648741695
0.9997296864766413
0.9997317582734921
0.9997338771185392
0.999736039696538
0.9997382425263801
0.9997404819650791
0.9997427542126041
0.99974505531757
0.999747381183833
0.9997497275779947
0.9997520901378559
0.9997544643818096
0.9997568457192
0.9997592294616336
0.9997616108352587
0.999763984993979
0.9997663470336099
0.9997686920069352
0.9997710149396506
0.9997733108471409
0.9997755747520681
0.9997778017026946
0.9997799867919066
0.9997821251768516
0.9997842120991325
0.9997862429054596
0.9997882130686918
0.9997901182091516
0.9997919541161296
0.9997937167694583
0.9997954023610492
0.9997970073162792
0.9997985283150974
0.9997999623127454
0.9998013065599564
0.9998025586225221
0.9998037164001073
0.9998047781441999
0.9998057424750915
0.9998066083977865
0.9998073753167559
0.9998080430494622
0.9998086118385808
0.9998090823628867
0.9998094557467568
0.999809733568292
0.9998099178660369
0.9998100111443405
0.9998100163773653
0.9998099370118085
0.9998097769683626
0.9998095406419815
0.999809232900955
0.9998088590848154
0.9998084250009904
0.9998079369200144
0.9998074015689422
0.9998068261226292
0.9998062181921074
0.9998055858080612
0.9998049373965922
0.9998042817480853
0.9998036279786288
0.9998029854655855
0.9998023637353466
0.9998017723615245
0.9998012208926625
0.9998007185732929
0.9998002739994655
0.9997998956471867
0.9997995916328036
0.9997993684673416
0.9997992312638079
0
0
0.9997092847638286
0.9997089800512866
0.9997086229947768
0.9997082167321597
0.9997077660733898
0.9997072770321915
0.9997067561774486
0.9997062107097069
0.999705648107659
0.9997050758445638
0.9997045013203794
0.999703931741794
0.9997033739884976
0.9997028345541961
0.9997023195208621
0.9997018345424021
0.9997013848415998
0.999700975219769
0.9997006100730523
0.9997002934119962
0.999700028883145
0.9996998197915808
0.9996996691233069
0.9996995795668076
0.9996995535333411
0.9996995931757406
0.9996997004055124
0.9996998769081978
0.9997001241569474
0.999700443424362
0.9997008357926432
0.9997013021621632
0.999701843258518
0.9997024596382147
0.9997031516930717
0.9997039196534888
0.9997047635906677
0.9997056834179514
0.9997066788913506
0.9997077496094277
0.9997088950125974
0.999710114382008
0.9997114068380593
0.9997127713387035
0.999714206677591
0.9997157114821806
0.9997172842118839
0.999718923156348
0.9997206264339344
0.9997223919904936
0.9997242175984863
0.9997261008565379
0.9997280391894714
0.9997300298488992
0.9997320699144063
0.9997341562954011
0.9997362857336551
0.9997384548066044
0.9997406599314199
0.9997428973699187
0.999745163234307
0.9997474534938215
0.9997497639822572
0.9997520904064281
0.9997544283555471
0.9997567733115578
0.9997591206603986
0.9997614657042141
0.999763803674486
0.9997661297460908
0.999768439052236
0.9997707267002712
0.999772987788317
0.9997752174226863
0.9997774107360304
0.9997795629061709
0.9997816691755304
0.9997837248711081
0.9997857254249034
0.9997876663947114
0.9997895434851858
0.9997913525690717
0.9997930897084987
0.9997947511762221
0.9997963334766937
0.9997978333668378
0.9997992478764166
0.9998005743278512
0.9998018103553808
0.9998029539234338
0.9998040033440961
0.9998049572935572
0.9998058148274339
0.9998065753948654
0.9998072388513009
0.9998078054698881
0.9998082759514147
0.9998086514327309
0.999808933493632
0.9998091241621545
0.9998092259182896
0.9998092416960817
0.9998091748841338
0.9998090293244846
0.9998088093098656
0.9998085195792575
0.9998081653116818
0.9998077521180415
0.9998072860308039
0.9998067734910098
0.9998062213318841
0.9998056367583151
0.9998050273215582
0.9998044008864565
0.9998037655862456
0.999803129765743
0.99980250191968
0.9998018906042085
0.9998013042844318
0.999800751210038
0.9998002393905888
0.9997997763486337
0.9997993688389268
0.9997990230796715
0.9997987442690196
0.999798535775219
0
0
0.9997100029435266
0.9997096157386252
0.9997091918514605
0.9997087334530882
0.9997082437117172
0.9997077269107603
0.9997071881763396
0.9997066332918818
0.999706068313597
0.9997054994773421
0.9997049330663651
0.9997043752544164
0.9997038320162631
0.9997033090711097
0.9997028118339062
0.999702345387031
0.9997019144698872
0.9997015234781356
0.9997011764691294
0.9997008771724843
0.9997006290039783
0.9997004350811506
0.9997002982395355
0.9997002210489092
0.9997002058289876
0.9997002546642421
0.9997003694175475
0.9997005517425605
0.999700803094714
0.9997011247408425
0.9997015177674166
0.9997019830874689
0.999702521446239
0.9997031334256595
0.9997038194477293
0.9997045797769218
0.9997054145216775
0.9997063236351386
0.9997073069151782
0.9997083640038781
0.9997094943865064
0.9997106973901468
0.9997119721820247
0.9997133177676711
0.9997147329889716
0.9997162165222279
0.9997177668762731
0.9997193823907617
0.9997210612346669
0.9997228014051011
0.999724600726481
0.9997264568501466
0.9997283672544541
0.9997303292454297
0.9997323399580172
0.9997343963579866
0.9997364952445192
0.9997386332535582
0.9997408068619079
0.9997430123921658
0.9997452460184765
0.9997475037731683
0.9997497815542644
0.9997520751339122
0.9997543801677176
0.9997566922050238
0.9997590067000972
0.9997613190242621
0.9997636244789315
0.9997659183095601
0.9997681957204617
0.9997704518904948
0.9997726819895547
0.9997748811958509
0.9997770447139044
0.9997791677932184
0.9997812457475498
0.9997832739747115
0.9997852479768234
0.9997871633809269
0.9997890159598577
0.9997908016532869
0.9997925165888074
0.9997941571029608
0.9997957197620796
0.9997972013828197
0.9997985990522578
0.9997999101474232
0.9998011323541376
0.9998022636850253
0.9998033024965826
0.9998042475051653
0.9998050978017972
0.9998058528656689
0.9998065125762446
0.999807077223864
0.999807547518779
0.9998079245985232
0.9998082100335833
0.9998084058312869
0.9998085144378868
0.9998085387387715
0.9998084820567862
0.9998083481485769
0.9998081411989199
0.9998078658129079
0.9998075270058636
0.999807130190713
0.9998066811625288
0.9998061860798094
0.9998056514418767
0.9998050840611415
0.9998044910291629
0.9998038796761999
0.999803257522071
0.9998026322112882
0.9998020114323315
0.9998014028367103
0.9998008139372841
0.9998002519483349
0.9997997236732726
0.9997992354672973
0.9997987928919323
0.9997984005699825
0.9997980621213203
0.9997977799962702
0
0
0.9997107427148108
0.9997102727191289
0.9997097802429632
0.9997092665583263
0.9997087333787797
0.9997081838022485
0.9997076217025349
0.9997070515606856
0.9997064782542454
0.9997059069377192
0.9997053428607147
0.9997047912615521
0.9997042572884581
0.9997037459258203
0.9997032619423459
0.9997028098608567
0.9997023939393199
0.9997020181608598
0.9997016862317982
0.999701401585378
0.9997011673889709
0.9997009865536056
0.9997008617448647
0.9997007953944061
0.9997007897114608
0.9997008466939519
0.9997009681388938
0.9997011556519344
0.9997014106558574
0.9997017343980401
0.9997021279567867
0.9997025922466112
0.9997031280224457
0.9997037358828882
0.9997044162725044
0.9997051694833134
0.9997059956554928
0.9997068947774427
0.9997078666852429
0.9997089110616588
0.9997100274347179
0.9997112151760146
0.9997124734987691
0.9997138014557805
0.9997151979373047
0.9997166616689926
0.9997181912099045
0.9997197849507348
0.99972144111226
0.999723157744131
0.9997249327240181
0.9997267637572269
0.9997286483767823
0.9997305839440912
0.9997325676501816
0.9997345965176148
0.9997366674030639
0.9997387770006495
0.9997409218460201
0.9997430983212584
0.9997453026605934
0.9997475309569956
0.9997497791696266
0.9997520431322068
0.9997543185622711
0.999756601071363
0.9997588861761295
0.9997611693103542
0.9997634458378822
0.9997657110664603
0.9997679602624376
0.9997701886663309
0.9997723915091956
0.9997745640297793
0.9997767014923922
0.9997787992054593
0.9997808525406626
0.9997828569526264
0.999784807999043
0.9997867013611661
0.9997885328645612
0.999790298500023
0.9997919944445298
0.9997936170821378
0.9997951630246724
0.9997966291321021
0.999798012532456
0.9997993106411512
0.9998005211795955
0.9998016421929254
0.999802672066752
0.9998036095427726
0.999804453733133
0.999805204133398
0.9998058606340436
0.9998064235303264
0.9998068935304654
0.9998072717620113
0.9998075597763495
0.9998077595512247
0.9998078734912477
0.9998079044262783
0.9998078556076395
0.9998077307020372
0.9998075337831215
0.9998072693204955
0.999806942166047
0.9998065575372937
0.9998061209974244
0.9998056384314928
0.999805116018313
0.9998045601973066
0.9998039776288854
0.9998033751467782
0.9998027597026475
0.9998021383021441
0.9998015179237132
0.9998009054217276
0.9998003074352928
0.999799730282533
0.9997991797850054
0.9997986611768388
0.9997981789443563
0.9997977366566406
0.9997973364476922
0.9997969798952858
0
0
0.9997114887034924
0.999710936794944
0.9997103751016942
0.9997098041098643
0.9997092245076376
0.9997086384216016
0.9997080486201559
0.9997074585275739
0.9997068720159414
0.9997062932579975
0.9997057265870264
0.9997051764077549
0.9997046471045905
0.9997041429723557
0.9997036681684149
0.9997032266768572
0.9997028222832395
0.9997024585598236
0.9997021388582498
0.9997018663074101
0.999701643815211
0.9997014740731787
0.9997013595628067
0.999701302562915
0.9997013051574024
0.9997013692430224
0.9997014965367984
0.9997016885829126
0.9997019467588532
0.9997022722807908
0.9997026662080726
0.9997031294468853
0.9997036627530361
0.999704266733953
0.9997049418498861
0.999705688414446
0.9997065065944699
0.9997073964093692
0.9997083577299655
0.9997093902769574
0.9997104936190431
0.9997116671708349
0.9997129101905861
0.9997142217778697
0.9997156008712221
0.9997170462458865
0.9997185565116669
0.9997201301110192
0.9997217653173858
0.999723460233896
0.9997252127924313
0.9997270207531703
0.9997288817046107
0.9997307930641749
0.9997327520793889
0.9997347558297409
0.9997368012291954
0.9997388850294695
0.9997410038240399
0.999743154052978
0.9997453320085791
0.9997475338418718
0.999749755569972
0.9997519930843514
0.9997542421599898
0.9997564984654572
0.9997587575738958
0.9997610149749384
0.9997632660875144
0.9997655062735744
0.9997677308526733
0.9997699351174254
0.9997721143497625
0.9997742638379861
0.9997763788945382
0.9997784548744629
0.999780487194462
0.9997824713525063
0.9997844029478873
0.9997862777016473
0.9997880914772709
0.9997898403015409
0.9997915203854413
0.999793128144986
0.9997946602218446
0.9997961135036373
0.9997974851437553
0.9997987725805672
0.9997999735558716
0.9998010861324415
0.9998021087105342
0.9998030400432004
0.9998038792502775
0.9998046258309117
0.9998052796744943
0.9998058410698727
0.999806310712741
0.9998066897110713
0.999806979588513
0.9998071822856254
0.9998073001588856
0.9998073359773387
0.9998072929168189
0.9998071745516
0.9998069848433787
0.9998067281273888
0.9998064090954781
0.999806032775856
0.9998056045092318
0.999805129920845
0.9998046148878071
0.9998040655011479
0.9998034880220661
0.9998028888308788
0.9998022743667734
0.999801651059568
0.9998010252538256
0.9998004031172582
0.9997997905334014
0.9997991930088007
0.9997986155377542
0.9997980624628264
0.9997975372937953
0.999797042743444
0.9997965799084756
0.9997961495784979
0
0
0.9997122275231016
0.9997115953093502
0.9997109645844408
0.9997103352593345
0.9997097072843173
0.9997090819487929
0.9997084611291885
0.99970784737802
0.9997072436826484
0.9997066533594898
0.9997060799393306
0.999705527072566
0.9997049984443407
0.9997044977141156
0.9997040284658703
0.9997035941696599
0.999703198154716
0.9997028435913173
0.9997025334790466
0.9997022706404083
0.9997020577185084
0.9997018971776326
0.9997017913057494
0.9997017422183317
0.9997017518628533
0.9997018220236014
0.9997019543263906
0.9997021502430259
0.9997024110952584
0.9997027380582055
0.9997031321630896
0.9997035942993382
0.9997041252159686
0.999704725522355
0.9997053956883309
0.999706136043756
0.9997069467775287
0.9997078279361805
0.9997087794220468
0.9997098009911608
0.9997108922508647
0.9997120526572862
0.9997132815126802
0.9997145779627765
0.9997159409941303
0.9997173694316185
0.9997188619360691
0.9997204170021642
0.9997220329566014
0.9997237079566468
0.9997254399890565
0.9997272268695028
0.99972906624247
0.9997309555817543
0.9997328921915253
0.9997348732080797
0.999736895602242
0.9997389561825302
0.9997410515990462
0.9997431783481946
0.9997453327781852
0.9997475110954225
0.9997497093717231
0.9997519235524609
0.9997541494655793
0.9997563828315439
0.9997586192741895
0.9997608543325088
0.999763083473329
0.9997653021049181
0.9997675055914497
0.9997696892683557
0.9997718484584821
0.9997739784890601
0.9997760747094028
0.9997781325093038
0.999780147338048
0.9997821147239876
0.9997840302945703
0.9997858897967652
0.9997876891177473
0.999789424305767
0.9997910915910604
0.9997926874066955
0.9997942084092047
0.9997956514988817
0.9997970138395856
0.9997982928779111
0.9997994863615703
0.9998005923568349
0.9998016092648827
0.9998025358368933
0.9998033711877518
0.9998041148081948
0.9998047665752745
0.9998053267609849
0.9998057960389363
0.999806175488927
0.9998064665993222
0.9998066712670833
0.9998067917953828
0.9998068308886352
0.9998067916448805
0.9998066775453425
0.9998064924410642
0.9998062405364103
0.9998059263692836
0.9998055547877434
0.9998051309227848
0.9998046601568733
0.9998041480878318
0.9998036004873306
0.9998030232534911
0.9998024223572901
0.9998018037814872
0.9998011734502521
0.9998005371511441
0.999799900451833
0.9997992685979609
0.999798646407895
0.9997980381568125
0.9997974474750011
0.999796877104216
0.9997963290183438
0.9997958036028549
0.9997953010806957
0
0
0.9997129474677142
0.9997122369806732
0.9997115380263882
0.9997108501043365
0.999710172589269
0.9997095060991348