# vtk DataFile Version 2.0
2D-ADE data file 
ASCII
DATASET RECTILINEAR_GRID
DIMENSIONS 128 128 1 
X_COORDINATES 128 int
0 1 2 3 4 5 6 7 8 9 10 11 12 13 14 15 16 17 18 19 20 21 22 23 24 25 26 27 28 29 30 31 32 33 34 35 36 37 38 39 40 41 42 43 44 45 46 47 48 49 50 51 52 53 54 55 56 57 58 59 60 61 62 63 64 65 66 67 68 69 70 71 72 73 74 75 76 77 78 79 80 81 82 83 84 85 86 87 88 89 90 91 92 93 94 95 96 97 98 99 100 101 102 103 104 105 106 107 108 109 110 111 112 113 114 115 116 117 118 119 120 121 122 123 124 125 126 127 
Y_COORDINATES 128 int
0 1 2 3 4 5 6 7 8 9 10 11 12 13 14 15 16 17 18 19 20 21 22 23 24 25 26 27 28 29 30 31 32 33 34 35 36 37 38 39 40 41 42 43 44 45 46 47 48 49 50 51 52 53 54 55 56 57 58 59 60 61 62 63 64 65 66 67 68 69 70 71 72 73 74 75 76 77 78 79 80 81 82 83 84 85 86 87 88 89 90 91 92 93 94 95 96 97 98 99 100 101 102 103 104 105 106 107 108 109 110 111 112 113 114 115 116 117 118 119 120 121 122 123 124 125 126 127 
Z_COORDINATES 1 int
0
POINT_DATA 16384
SCALARS density double
LOOKUP_TABLE default
0
0
0
0
0
0
0
0
0
0
0
0
0
0
0
0
0
0
0
0
0
0
0
0
0
0
0
0
0
0
0
0
0
0
0
0
0
0
0
0
0
0
0
0
0
0
0
0
0
0
0
0
0
0
0
0
0
0
0
0
0
0
0
0
0
0
0
0
0
0
0
0
0
0
0
0
0
0
0
0
0
0
0
0
0
0
0
0
0
0
0
0
0
0
0
0
0
0
0
0
0
0
0
0
0
0
0
0
0
0
0
0
0
0
0
0
0
0
0
0
0
0
0
0
0
0
0
0
0
0.999680405813391
0.999680406235987
0.9996803236173047
0.9996801482189082
0.9996798676140785
0.9996795091553999
0.9996791034317026
0.9996786745259846
0.9996782424007954
0.9996778247628042
0.9996774368254434
0.9996770913146857
0.9996767988027155
0.9996765680337454
0.9996764061572538
0.9996763189274993
0.9996763108847699
0.9996763855149339
0.9996765453878972
0.999676792279265
0.9996771272781596
0.9996775508829874
0.9996780630865828
0.9996786634519781
0.9996793511798419
0.9996801251684476
0.9996809840669195
0.9996819263224023
0.9996829502217226
0.9996840539280384
0.9996852355129109
0.9996864929841881
0.9996878243100362
0.9996892274394322
0.9996907003193867
0.9996922409091522
0.9996938471916438
0.9996955171822864
0.9996972489354874
0.9996990405489198
0.999700890165797
0.9997027959753017
0.9997047562113384
0.9997067691497616
0.9997088331042292
0.9997109464208346
0.9997131074716498
0.9997153146473268
0.9997175663488911
0.999719860978855
0.9997221969317895
0.9997245725844719
0.9997269862857426
0.9997294363461885
0.9997319210277761
0.9997344385335484
0.9997369869975066
0.9997395644747846
0.9997421689322287
0.9997447982394927
0.9997474501607456
0.9997501223471041
0.999752812329878
0.999755517514723
0.9997582351767977
0.9997609624569963
0.9997636963593457
0.9997664337496306
0.9997691713553168
0.9997719057668252
0.9997746334402114
0.999777350701286
0.9997800537512067
0.9997827386735679
0.9997854014429933
0.9997880379352353
0.9997906439387635
0.9997932151678283
0.999795747276957
0.9997982358768399
0.9998006765515501
0.9998030648770238
0.9998053964407287
0.9998076668624244
0.9998098718159237
0.9998120070517453
0.9998140684205508
0.9998160518972462
0.9998179536056342
0.9998197698434969
0.9998214971079963
0.999823132121283
0.9998246718562142
0.999826113562094
0.9998274547903692
0.9998286934202317
0.9998298276841163
0.9998308561931055
0.9998317779622987
0.999832592436256
0.9998332995146747
0.9998338995785301
0.9998343935169746
0.999834782755384
0.9998350692850345
0.9998352556949828
0.9998353452068736
0.999835341713494
0.9998352498221355
0.9998350749039925
0.9998348231510353
0.9998345016421267
0.9998341184210948
0.9998336825906946
0.9998332044227825
0.9998326954815757
0.9998321687702983
0.999831638952958
0.9998311225654265
0.9998306379271359
0.9998302047073013
0.9998298453099064
0.9998295863989984
0.9998294503578636
0.9998294176466771
0.9998294610282633
0
0
0.9996803554340228
0.9996803991850676
0.9996803454898732
0.9996801943197094
0.9996799663292808
0.9996796777673664
0.9996793483687935
0.99967899784552
0.9996786446438598
0.9996783046849568
0.9996779917229065
0.9996777175734514
0.9996774922728482
0.999677324222187
0.9996772203700537
0.9996771863839494
0.9996772268019155
0.9996773451674736
0.9996775441516706
0.9996778256628012
0.9996781909447887
0.9996786406654651
0.999679174995863
0.9996797936813986
0.9996804961057026
0.9996812813477755
0.9996821482330486
0.9996830953788894
0.9996841212350107
0.9996852241192082
0.9996864022487922
0.999687653768063
0.9996889767721191
0.9996903693272848
0.9996918294883981
0.9996933553132009
0.9996949448740295
0.9996965962670199
0.9996983076190019
0.9997000770922686
0.9997019028873809
0.9997037832441745
0.9997057164411213
0.9997077007931968
0.9997097346483937
0.9997118163830333
0.9997139443959973
0.9997161171020307
0.9997183329242333
0.9997205902858782
0.9997228876016777
0.9997252232686242
0.9997275956565245
0.9997300030983528
0.9997324438805297
0.9997349162332526
0.9997374183209857
0.9997399482332154
0.9997425039755897
0.9997450834615346
0.9997476845044592
0.9997503048106393
0.9997529419728807
0.9997555934650517
0.9997582566375651
0.9997609287138984
0.9997636067882218
0.9997662878242038
0.9997689686550593
0.9997716459848881
0.9997743163913636
0.9997769763297935
0.9997796221385915
0.9997822500461832
0.9997848561793412
0.9997874365729668
0.9997899871812906
0.9997925038904797
0.9997949825326138
0.9997974189009866
0.999799808766676
0.9998021478963198
0.9998044320710189
0.9998066571062852
0.9998088188729395
0.9998109133188634
0.9998129364914952
0.9998148845609638
0.9998167538437495
0.999818540826759
0.9998202421917122
0.9998218548397281
0.9998233759160294
0.9998248028346769
0.9998261333032687
0.9998273653475662
0.9998284973360231
0.9998295280042312
0.9998304564793324
0.9998312823044821
0.9998320054635059
0.9998326264059376
0.9998331460726917
0.9998335659226866
0.9998338879608156
0.999834114767731
0.9998342495320103
0.9998342960853577
0.9998342589416004
0.9998341433403604
0.9998339552964974
0.9998337016564879
0.9998333901626376
0.9998330295254568
0.9998326295071673
0.9998322010179743
0.9998317562158949
0.9998313085607091
0.9998308728623746
0.9998304653574678
0.999830103866431
0.9998298063926577
0.9998295895143491
0.9998294643501053
0.9998294420620064
0.9998295122544643
0
0
0.999680453586233
0.9996805205282371
0.999680485270971
0.99968035404589
0.9996801613407834
0.9996799197143915
0.9996796452800446
0.9996793548049633
0.9996790641610986
0.9996787872439714
0.9996785364253464
0.9996783225259812
0.9996781548449984
0.9996780412599067
0.9996779883694834
0.9996780016197818
0.9996780854226164
0.9996782432682204
0.9996784778304365
0.9996787910627979
0.9996791842861384
0.9996796582684333
0.9996802132973936
0.9996808492462865
0.9996815656334775
0.9996823616761542
0.9996832363386701
0.9996841883758913
0.9996852163719175
0.9996863187745124
0.9996874939255415
0.9996887400877164
0.9996900554678922
0.9996914382371609
0.9996928865479693
0.9996943985484614
0.9996959723942417
0.9996976062577435
0.99969929833537
0.9997010468525815
0.9997028500670778
0.9997047062702343
0.9997066137869312
0.9997085709739295
0.9997105762169202
0.9997126279263908
0.9997147245324354
0.9997168644786436
0.9997190462151871
0.99972126819124
0.9997235288468389
0.9997258266043242
0.9997281598594587
0.9997305269723578
0.9997329262583331
0.9997353559787714
0.9997378143321458
0.9997402994452871
0.999742809364994
0.9997453420501108
0.9997478953641503
0.9997504670685738
0.9997530548168075
0.9997556561490941
0.9997582684882559
0.9997608891364491
0.9997635152729869
0.9997661439532884
0.9997687721090254
0.9997713965495071
0.9997740139643604
0.9997766209275303
0.9997792139026404
0.9997817892497192
0.999784343233313
0.9997868720319755
0.9997893717491277
0.9997918384252632
0.9997942680514658
0.999796656584199
0.9997989999613119
0.9998012941191982
0.9998035350110356
0.9998057186260224
0.9998078410095257
0.9998098982840441
0.9998118866708798
0.9998138025124216
0.999815642294926
0.9998174026716965
0.9998190804865518
0.999820672797484
0.9998221769004242
0.9998235903530228
0.9998249109983924
0.9998261369887582
0.9998272668089943
0.9998282993000472
0.9998292336822826
0.9998300695788114
0.9998308070389159
0.9998314465617153
0.9998319891202697
0.9998324361863697
0.9998327897563114
0.9998330523780069
0.9998332271798415
0.9998333179017355
0.9998333289289343
0.9998332653289989
0.9998331328925505
0.9998329381784073
0.9998326885636675
0.99983239229705
0.9998320585534735
0.999831697489891
0.9998313203103464
0.9998309392840153
0.9998305676852774
0.9998302196350058
0.9998299103590774
0.9998296550695348
0.9998294674322636
0.9998293558768548
0.9998293463110679
0.9998294398080897
0
0
0.9996807424991325
0.9996807872477743
0.999680740142403
0.9996806173388534
0.9996804421131782
0.9996802277050207
0.9996799902066402
0.999679743291795
0.9996795000141446
0.9996792725357644
0.9996790718800288
0.9996789077163829
0.999678788461548
0.999678721355048
0.9996787125298411
0.9996787670946019
0.9996788892283719
0.9996790822723841
0.9996793488166194
0.9996796907813714
0.9996801094937087
0.9996806057583488
0.9996811799229346
0.9996818319379209
0.9996825614113125
0.9996833676584947
0.9996842497474083
0.9996852065393429
0.9996862367255962
0.9996873388602576
0.9996885113893473
0.9996897526765409
0.9996910610256935
0.9996924347003681
0.9996938719405509
0.9996953709767509
0.9996969300416381
0.9996985473793992
0.9997002212529611
0.9997019499492359
0.9997037317825319
0.9997055650962786
0.9997074482631937
0.9997093796840363
0.9997113577850717
0.9997133810143781
0.9997154478371215
0.9997175567299245
0.9997197061744466
0.9997218946503046
0.9997241206274365
0.9997263825580432
0.9997286788682103
0.9997310079493259
0.9997333681494054
0.9997357577644385
0.9997381750298511
0.999740618112206
0.9997430851012262
0.9997455740022542
0.9997480827292389
0.9997506090983407
0.9997531508222531
0.9997557055053169
0.9997582706395152
0.9997608436014258
0.9997634216501945
0.9997660019266033
0.9997685814532878
0.9997711571361524
0.9997737257670335
0.999776284027641
0.9997788284948063
0.9997813556470566
0.99978386187252
0.9997863434781654
0.9997887967003608
0.9997912177167296
0.9997936026592757
0.9997959476287306
0.999798248710073
0.9998005019891596
0.999802703570396
0.9998048495953619
0.999806936262316
0.9998089598464754
0.9998109167209782
0.9998128033784199
0.9998146164528702
0.9998163527422503
0.9998180092309858
0.9998195831128178
0.9998210718137
0.9998224730146842
0.999823784674734
0.9998250050534114
0.9998261327334006
0.9998271666428548
0.999828106077583
0.9998289507231117
0.9998297006766971
0.999830356469384
0.9998309190882646
0.9998313899990858
0.9998317711694333
0.9998320650927084
0.9998322748131642
0.9998324039522448
0.9998324567365202
0.999832438027452
0.99983235335306
0.9998322089410642
0.9998320117533649
0.9998317695219084
0.9998314907837386
0.9998311849006819
0.9998308620624078
0.9998305332835852
0.9998302104227638
0.9998299059091298
0.9998296324221227
0.9998294024061919
0.9998292297057263
0.9998291249283792
0.9998291089169815
0.9998291941484735
0
0
0.9996811881220248
0.9996811777442759
0.9996811000504668
0.9996809680684501
0.9996807944464273
0.9996805931685964
0.9996803778754002
0.9996801599853999
0.9996799507659688
0.9996797607106921
0.9996795993403125
0.9996794751612991
0.9996793956941598
0.9996793674662819
0.9996793960532551
0.999679486142241
0.9996796416004369
0.9996798655436853
0.9996801604061071
0.9996805280084249
0.9996809696232493
0.9996814860366843
0.999682077606055
0.9996827443136241
0.9996834858162391
0.9996843014909621
0.9996851904767846
0.9996861517125759
0.9996871839714058
0.9996882858914218
0.9996894560034333
0.9996906927553939
0.9996919945339284
0.9996933596830885
0.9996947865204798
0.9996962733509296
0.9996978184778355
0.9996994202123473
0.9997010768805163
0.999702786828558
0.9997045484263551
0.9997063600693396
0.9997082201788716
0.9997101272012549
0.9997120796054971
0.9997140758799544
0.9997161145279603
0.9997181940625783
0.9997203130005742
0.9997224698557451
0.9997246631316951
0.9997268913141945
0.9997291528632121
0.999731446204747
0.9997337697225528
0.9997361217498764
0.9997385005612976
0.9997409043647926
0.9997433312940968
0.9997457794014911
0.9997482466510818
0.9997507309126868
0.9997532299563988
0.9997557414479195
0.999758262944745
0.9997607918932705
0.9997633256268893
0.9997658613651483
0.9997683962140173
0.9997709271673212
0.9997734511093801
0.9997759648188905
0.9997784649740743
0.9997809481591126
0.9997834108718762
0.9997858495329447
0.9997882604959079
0.9997906400589279
0.9997929844775275
0.9997952899785657
0.9997975527753485
0.9997997690838133
0.9998019351397184
0.9998040472167571
0.9998061016455132
0.9998080948331622
0.9998100232838244
0.999811883619461
0.9998136726012213
0.9998153871511215
0.9998170243739617
0.9998185815793756
0.9998200563039248
0.9998214463331367
0.9998227497234305
0.9998239648238467
0.9998250902975478
0.999826125143049
0.9998270687151795
0.9998279207457714
0.9998286813641233
0.9998293511172844
0.9998299309902481
0.9998304224261421
0.9998308273465397
0.9998311481719988
0.9998313878429667
0.9998315498411187
0.9998316382111669
0.9998316575830616
0.9998316131945209
0.999831510913365
0.9998313572582005
0.9998311594151749
0.9998309252514919
0.9998306633213532
0.9998303828502564
0.9998300936695443
0.999829806176232
0.9998295312265233
0.999829279943752
0.9998290630779816
0.9998288929198417
0.9998287815347933
0.9998287417638783
0.9998287856581438
0
0
0.9996817532981567
0.9996816752912338
0.9996815529419253
0.9996813939465881
0.9996812083079472
0.9996810073647704
0.9996808012888597
0.9996806000904432
0.9996804133926414
0.9996802499985004
0.999680118044891
0.9996800249343246
0.9996799772556032
0.9996799807718898
0.9996800404527543
0.999680160508707
0.9996803444341514
0.9996805950589275
0.9996809146035495
0.9996813047344967
0.9996817666185599
0.9996823009755417
0.9996829081285757
0.9996835880516268
0.9996843404139265
0.9996851646212596
0.999686059854052
0.999687025102288
0.9996880591973055
0.9996891608405714
0.9996903286295293
0.9996915610806453
0.9996928566497679
0.9996942137499363
0.9996956307667536
0.9996971060714742
0.9996986380319035
0.9997002250212689
0.9997018654251556
0.999703557646661
0.9997053001098584
0.9997070912617209
0.9997089295725953
0.9997108135353687
0.9997127416634211
0.9997147124875001
0.9997167245516102
0.9997187764080492
0.9997208666116862
0.9997229937136057
0.9997251562542112
0.9997273527559177
0.9997295817155176
0.9997318415963444
0.9997341308203254
0.9997364477600383
0.9997387907308617
0.9997411579833295
0.9997435476957772
0.9997459579673902
0.9997483868117232
0.9997508321508101
0.9997532918099231
0.999755763513084
0.9997582448793926
0.9997607334202563
0.9997632265375801
0.9997657215229871
0.99976821555812
0.999770705716082
0.9997731889640459
0.9997756621670798
0.9997781220932063
0.9997805654197169
0.9997829887407492
0.9997853885761234
0.9997877613814281
0.9997901035593388
0.999792411472127
0.9997946814553326
0.9997969098325363
0.9997990929311795
0.9998012270993571
0.9998033087235085
0.9998053342469209
0.9998073001889475
0.9998092031648476
0.999811039906142
0.9998128072813839
0.999814502317227
0.9998161222196991
0.9998176643955584
0.9998191264736536
0.9998205063261699
0.9998218020896982
0.9998230121860311
0.9998241353426393
0.999825170612763
0.9998261173951002
0.999826975453053
0.9998277449335468
0.9998284263854156
0.9998290207773929
0.9998295295157218
0.9998299544614251
0.9998302979472462
0.9998305627942592
0.9998307523280962
0.9998308703946813
0.9998309213751438
0.9998309101993915
0.9998308423577912
0.9998307239102839
0.9998305614898945
0.9998303622964119
0.9998301340797943
0.9998298851202023
0.9998296241704895
0.9998293603444081
0.9998291029998333
0.9998288618519692
0.9998286466083326
0.9998284670659111
0.9998283337611605
0.9998282566884246
0.9998282437568962
0
0
0.9996824106273638
0.9996822568216509
0.9996820787498282
0.9996818814352689
0.999681672825588
0.9996814606686477
0.9996812529834991
0.9996810581296344
0.999680883916773
0.9996807377103871
0.9996806264154214
0.9996805563335436
0.9996805331186449
0.9996805617694235
0.9996806466268296
0.9996807913863327
0.9996809991274045
0.9996812723507666
0.9996816130193363
0.9996820226017342
0.9996825021169629
0.999683052178786
0.9996836730388895
0.9996843646283197
0.9996851265967982
0.9996859583496707
0.9996868590823093
0.9996878278119179
0.9996888634066895
0.9996899646123647
0.9996911300762029
0.9996923583684683
0.9996936480014765
0.9996949974463273
0.9996964051473911
0.9996978695346767
0.9996993890341668
0.9997009620762456
0.9997025871023085
0.9997042625696845
0.9997059869549558
0.9997077587558106
0.9997095764915089
0.9997114387020978
0.9997133439464593
0.9997152907993193
0.9997172778473064
0.999719303684182
0.9997213669053375
0.9997234661016706
0.9997255998529356
0.9997277667206922
0.9997299652409253
0.9997321939164724
0.9997344512093296
0.9997367355329619
0.9997390452446927
0.9997413786382948
0.9997437339368543
0.9997461092860241
0.9997485027477339
0.9997509122944693
0.9997533358041837
0.9997557710559419
0.9997582157263579
0.9997606673869144
0.9997631235022153
0.999765581429253
0.9997680384177248
0.9997704916114692
0.9997729380510466
0.9997753746775105
0.9997777983373888
0.9997802057888974
0.999782593709389
0.9997849587040419
0.9997872973157733
0.9997896060363592
0.9997918813187251
0.9997941195903747
0.9997963172678958
0.9997984707724902
0.9998005765464547
0.9998026310705315
0.9998046308820481
0.9998065725937447
0.9998084529131959
0.999810268662715
0.9998120167996389
0.9998136944368757
0.9998152988636095
0.9998168275660445
0.9998182782480931
0.9998196488518829
0.9998209375780137
0.9998221429054462
0.9998232636109652
0.9998242987881287
0.9998252478656587
0.9998261106252078
0.9998268872184788
0.9998275781836438
0.999828184461059
0.999828707408211
0.9998291488138847
0.9998295109114637
0.9998297963912692
0.9998300084117501
0.9998301506092862
0.9998302271062449
0.9998302425166736
0.9998302019484762
0.9998301110010626
0.9998299757577119
0.9998298027698639
0.9998295990255031
0.9998293719040551
0.9998291291267863
0.9998288786855407
0.9998286286957545
0.999828387383203
0.9998281631639755
0.9998279640633407
0.9998277978380844
0.9998276724689027
0.9998275931868488
0
0
0.9996831358612703
0.9996829010113188
0.9996826601573204
0.9996824168730859
0.9996821761627877
0.9996819435190247
0.9996817252879577
0.9996815278695587
0.9996813575078017
0.9996812202945072
0.9996811219360004
0.9996810676837826
0.9996810623054025
0.9996811100448159
0.9996812146028525
0.9996813791422419
0.9996816063038264
0.999681898229681
0.9996822565927065
0.9996826826305282
0.9996831771813953
0.9996837407208293
0.9996843733981624
0.9996850750722929
0.9996858453460878
0.9996866835991057
0.9996875890183685
0.9996885606270559
0.9996895973109984
0.9996906978429543
0.9996918609046384
0.9996930851065509
0.999694369005625
0.9996957111207783
0.9996971099464066
0.9996985639639361
0.9997000716514804
0.9997016314917285
0.9997032419781192
0.9997049016194364
0.999706608942882
0.9997083624957619
0.9997101608458501
0.9997120025805597
0.9997138863049956
0.999715810639012
0.9997177742133531
0.999719775664998
0.999721813631791
0.9997238867464768
0.9997259936302204
0.9997281328857348
0.999730303090089
0.9997325027873254
0.9997347304809523
0.9997369846264442
0.9997392636238107
0.99974156581036
0.9997438894537269
0.9997462327452766
0.9997485937939544
0.9997509706206889
0.9997533611534113
0.9997557632227935
0.999758174558759
0.9997605927878626
0.9997630154315819
0.9997654399056081
0.9997678635201657
0.9997702834814353
0.999772696894103
0.9997751007650845
0.9997774920084366
0.9997798674514905
0.9997822238421992
0.9997845578577104
0.9997868661141455
0.9997891451775716
0.9997913915761258
0.9997936018132623
0.999795772382058
0.9997978997805264
0.9997999805278599
0.9998020111815279
0.9998039883551327
0.9998059087369381
0.9998077691089564
0.9998095663664927
0.9998112975380306
0.9998129598053412
0.9998145505237015
0.9998160672420985
0.9998175077233092
0.9998188699637307
0.99982015221287
0.999821352992362
0.9998224711144469
0.9998235056997865
0.9998244561945636
0.9998253223867587
0.9998261044215531
0.9998268028157673
0.9998274184712768
0.9998279526873013
0.9998284071714846
0.9998287840496106
0.9998290858737996
0.9998293156289216
0.9998294767368726
0.9998295730582143
0.9998296088906595
0.999829588963519
0.9998295184264985
0.9998294028312071
0.999829248105571
0.9998290605185401
0.9998288466256098
0.9998286131988341
0.9998283671708721
0.9998281155567724
0.9998278652695993
0.9998276231378418
0.9998273957464214
0.9998271888393699
0.9998270077589293
0.9998268562355799
0
0
0.9996839069115249
0.9996835886350306
0.9996832809664513
0.9996829860357673
0.9996827064943407
0.9996824463404503
0.9996822101513192
0.9996820026982732
0.9996818289135623
0.9996816936378053
0.9996816014603748
0.999681556674299
0.9996815632030334
0.9996816245531085
0.9996817437952565
0.9996819235583296
0.9996821660326551
0.9996824729837593
0.9996828457733123
0.9996832853844135
0.9996837924497188
0.9996843672813536
0.999685009901511
0.9996857200729514
0.9996864973288032
0.9996873410012811
0.9996882502489672
0.9996892240824761
0.9996902613883121
0.999691360950872
0.9996925214724983
0.9996937415916166
0.9996950198989185
0.9996963549516684
0.9996977452861301
0.999699189428222
0.9997006859024158
0.9997022332389967
0.9997038299797208
0.9997054746819946
0.9997071659216169
0.9997089022942143
0.9997106824154144
0.9997125049198985
0.9997143684593719
0.9997162716995915
0.9997182133165112
0.9997201919916645
0.9997222064068527
0.9997242552382694
0.999726337150112
0.9997284507878279
0.9997305947710359
0.9997327676862714
0.9997349680796035
0.9997371944492627
0.9997394452383284
0.999741718827613
0.9997440135287965
0.9997463275779332
0.9997486591293901
0.9997510062503321
0.9997533669158057
0.999755739004538
0.9997581202954847
0.9997605084652428
0.9997629010863586
0.9997652956266214
0.9997676894493761
0.9997700798149248
0.9997724638830434
0.9997748387166608
0.9997772012867203
0.9997795484782424
0.9997818770976015
0.9997841838810124
0.999786465504216
0.9997887185933455
0.999790939736942
0.999793125499072
0.9997952724335017
0.9997973770988613
0.9997994360747271
0.9998014459785386
0.9998034034832595
0.9998053053356849
0.9998071483752824
0.9998089295534599
0.9998106459531382
0.9998122948084995
0.9998138735248019
0.9998153796981148
0.9998168111348618
0.9998181658710337
0.9998194421909651
0.9998206386455312
0.9998217540696731
0.9998227875991185
0.999823738686208
0.9998246071147079
0.9998253930135166
0.9998260968691444
0.9998267195368721
0.9998272622504363
0.9998277266301209
0.9998281146890393
0.9998284288374052
0.9998286718844682
0.9998288470377773
0.9998289578991925
0.999829008456971
0.9998290030732179
0.9998289464658798
0.9998288436833024
0.9998287000693267
0.9998285212202942
0.9998283129329125
0.9998280811323209
0.9998278317845397
0.9998275708388837
0.9998273040865707
0.9998270369687816
0.9998267745495084
0.9998265211779239
0.9998262799394811
0.9998260531932953
0
0
0.9996847046682399
0.9996843027676969
0.9996839261547263
0.9996835757198834
0.9996832526321049
0.9996829595184097
0.9996826994262505
0.999682475869526
0.9996822925576372
0.9996821531876184
0.9996820613567776
0.9996820204658772
0.9996820336383775
0.999682103681113
0.9996822330567461
0.9996824238674528
0.999682677851903
0.9996829963920939
0.9996833805265052
0.9996838309682523
0.9996843481268953
0.9996849321325388
0.9996855828611242
0.9996862999602042
0.9996870828745473
0.999687930871143
0.9996888430631947
0.999689818432891
0.9996908558527204
0.9996919541052445
0.9996931119012006
0.9996943278959352
0.9996956007041053
0.9996969289126988
0.99969831109235
0.9996997458070387
0.9997012316221706
0.9997027671111437
0.9997043508604189
0.9997059814732147
0.9997076575718427
0.9997093777988211
0.9997111408167882
0.999712945307355
0.9997147899689249
0.9997166735136244
0.9997185946633732
0.9997205521452407
0.9997225446861243
0.999724571006888
0.999726629816011
0.9997287198028758
0.9997308396307484
0.999732987929588
0.999735163288727
0.9997373642495706
0.9997395892983473
0.9997418368590594
0.9997441052866747
0.9997463928606868
0.9997486977790979
0.9997510181529435
0.999753352001405
0.9997556972476264
0.9997580517152788
0.9997604131259734
0.9997627790975644
0.9997651471434305
0.9997675146727658
0.9997698789919583
0.9997722373070679
0.9997745867274724
0.9997769242706814
0.9997792468683577
0.9997815513735381
0.9997838345690709
0.9997860931772429
0.9997883238705866
0.9997905232838309
0.9997926880269542
0.9997948146992808
0.999796899904569
0.9997989402669976
0.9998009324479828
0.9998028731637213
0.9998047592033541
0.9998065874476502
0.999808354888074
0.9998100586461283
0.9998116959928297
0.99981326436819
0.9998147614005615
0.9998161849257143
0.9998175330054988
0.9998188039459701
0.9998199963148175
0.9998211089579946
0.9998221410153865
0.9998230919354157
0.999823961488432
0.9998247497787783
0.999825457255374
0.9998260847206976
0.9998266333379787
0.9998271046364505
0.9998275005144094
0.9998278232398602
0.9998280754483747
0.9998282601378164
0.9998283806594208
0.999828440704623
0.9998284442867105
0.9998283957166122
0.9998282995721741
0.9998281606588251
0.999827983959558
0.999827774576876
0.9998275376680302
0.9998272783513549
0.9998270016075279
0.9998267121885157
0.9998264144394664
0.9998261120736487
0.9998258082007393
0.9998255043879641
0.999825201797876
0
0
0.999685512875282
0.9996850283532496
0.9996845819902092
0.9996841738029189
0.9996838039009381
0.9996834737149934
0.9996831851347853
0.9996829405841425
0.999682742680294
0.999682594141358
0.9996824976662764
0.999682455829144
0.999682471015336
0.9996825453757062
0.9996826807911344
0.9996828788535307
0.9996831408583154
0.999683467804919
0.999683860404083
0.9996843190906525
0.9996848440401132
0.9996854351876963
0.9996860922491146
0.9996868147421979
0.9996876020087382
0.9996884532361092
0.999689367478223
0.9996903436755952
0.9996913806742491
0.9996924772433443
0.9996936320913877
0.999694843880988
0.9996961112420836
0.9996974327836653
0.9996988071039579
0.9997002327991299
0.9997017084705103
0.9997032327304172
0.9997048042065857
0.99970642154532
0.9997080834133654
0.9997097884986379
0.9997115355098132
0.9997133231749173
0.999715150238935
0.99971701546057
0.9997189176081883
0.9997208554550758
0.9997228277740462
0.9997248333315376
0.9997268708812256
0.9997289391573053
0.9997310368674661
0.9997331626857056
0.9997353152450238
0.9997374931301338
0.9997396948702278
0.999741918931943
0.9997441637125587
0.9997464275335702
0.9997487086346698
0.9997510051682719
0.9997533151946157
0.9997556366775746
0.9997579674811969
0.9997603053671013
0.9997626479927516
0.9997649929107106
0.9997673375688992
0.9997696793119407
0.9997720153836079
0.9997743429304352
0.9997766590065004
0.9997789605794186
0.999781244537534
0.9997835076983376
0.9997857468180685
0.9997879586025101
0.9997901397189208
0.9997922868090752
0.999794396503347
0.9997964654357783
0.9997984902600467
0.9998004676662517
0.9998023943984112
0.9998042672725713
0.9998060831954001
0.9998078391831461
0.9998095323808304
0.9998111600815245
0.9998127197455857
0.9998142090196838
0.9998156257554922
0.9998169680278657
0.9998182341523854
0.9998194227020873
0.9998205325232585
0.9998215627501157
0.999822512818256
0.9998233824766947
0.9998241717983698
0.9998248811889219
0.9998255113936215
0.9998260635022168
0.999826538951541
0.9998269395256012
0.9998272673529252
0.9998275249007927
0.9998277149659968
0.9998278406616237
0.9998279053994062
0.9998279128669157
0.9998278669986613
0.9998277719404062
0.9998276320064337
0.9998274516277983
0.9998272352884952
0.9998269874556338
0.9998267124973654
0.9998264145730789
0.9998260975135349
0.9998257647283514
0.9998254188936687
0.9998250620435563
0.9998246946739608
0.9998243170747048
0
0
0.9996863175395151
0.9996857521414567
0.9996852362174729
0.9996847691785647
0.9996843502989108
0.9996839800936562
0.999683659536526
0.9996833900972972
0.99968317348029
0.9996830115504155
0.999682906194702
0.9996828592433633
0.9996828724064551
0.9996829472223735
0.9996830850233425
0.9996832869146451
0.9996835537626797
0.9996838861914153
0.9996842845857431
0.999684749099944
0.9996852796699023
0.9996858760281524
0.999686537720792
0.9996872641255337
0.9996880544702413
0.9996889078515256
0.99968982325295
0.9996907995626064
0.9996918355897619
0.9996929300804762
0.9996940817319884
0.9996952892058637
0.9996965511397655
0.9996978661579028
0.9996992328800695
0.9997006499293524
0.9997021159384626
0.9997036295547881
0.9997051894441445
0.9997067942933411
0.99970844281154
0.9997101337305515
0.9997118658040482
0.9997136378058386
0.9997154485272044
0.9997172967734418
0.9997191813596132
0.9997211011056554
0.9997230548308562
0.999725041347854
0.9997270594561614
0.9997291079353827
0.999731185538127
0.9997332909827807
0.9997354229461572
0.9997375800561693
0.999739760884563
0.999741963939849
0.9997441876604651
0.9997464304083138
0.9997486904627051
0.9997509660148451
0.999753255162892
0.9997555559077252
0.999757866149437
0.9997601836846888
0.99976250620493
0.9997648312956193
0.9997671564364307
0.9997694790025677
0.9997717962671725
0.9997741054049138
0.9997764034967441
0.9997786875358845
0.9997809544350126
0.9997832010346834
0.9997854241129475
0.9997876203961701
0.9997897865709909
0.9997919192974074
0.9997940152228975
0.9997960709975378
0.9997980832900131
0.9998000488044437
0.9998019642979157
0.9998038265986027
0.9998056326243585
0.9998073794016423
0.9998090640846403
0.999810683974433
0.9998122365380566
0.9998137194272986
0.9998151304970734
0.9998164678232009
0.9998177297194416
0.9998189147536003
0.999820021762564
0.9998210498660713
0.9998219984790877
0.9998228673225814
0.9998236564325682
0.9998243661672107
0.9998249972118318
0.9998255505815967
0.9998260276217034
0.9998264300047833
0.9998267597253011
0.9998270190905824
0.9998272107081814
0.9998273374690885
0.9998274025263381
0.9998274092685048
0.9998273612874947
0.9998272623395971
0.9998271162992646
0.9998269271058988
0.9998266987004931
0.9998264349506962
0.9998261395679965
0.9998258160158434
0.9998254673688317
0.9998250962374083
0.9998247044987204
0.9998242933678138
0.9998238625370388
0.9998234117009357
0
0
0.9996871065371761
0.999686462491841
0.9996858778911355
0.9996853517028251
0.9996848825766238
0.9996844703362389