# vtk DataFile Version 2.0
2D-ADE data file 
ASCII
DATASET RECTILINEAR_GRID
DIMENSIONS 128 128 1 
X_COORDINATES 128 int
0 1 2 3 4 5 6 7 8 9 10 11 12 13 14 15 16 17 18 19 20 21 22 23 24 25 26 27 28 29 30 31 32 33 34 35 36 37 38 39 40 41 42 43 44 45 46 47 48 49 50 51 52 53 54 55 56 57 58 59 60 61 62 63 64 65 66 67 68 69 70 71 72 73 74 75 76 77 78 79 80 81 82 83 84 85 86 87 88 89 90 91 92 93 94 95 96 97 98 99 100 101 102 103 104 105 106 107 108 109 110 111 112 113 114 115 116 117 118 119 120 121 122 123 124 125 126 127 
Y_COORDINATES 128 int
0 1 2 3 4 5 6 7 8 9 10 11 12 13 14 15 16 17 18 19 20 21 22 23 24 25 26 27 28 29 30 31 32 33 34 35 36 37 38 39 40 41 42 43 44 45 46 47 48 49 50 51 52 53 54 55 56 57 58 59 60 61 62 63 64 65 66 67 68 69 70 71 72 73 74 75 76 77 78 79 80 81 82 83 84 85 86 87 88 89 90 91 92 93 94 95 96 97 98 99 100 101 102 103 104 105 106 107 108 109 110 111 112 113 114 115 116 117 118 119 120 121 122 123 124 125 126 127 
Z_COORDINATES 1 int
0
POINT_DATA 16384
SCALARS density double
LOOKUP_TABLE default
0
0
0
0
0
0
0
0
0
0
0
0
0
0
0
0
0
0
0
0
0
0
0
0
0
0
0
0
0
0
0
0
0
0
0
0
0
0
0
0
0
0
0
0
0
0
0
0
0
0
0
0
0
0
0
0
0
0
0
0
0
0
0
0
0
0
0
0
0
0
0
0
0
0
0
0
0
0
0
0
0
0
0
0
0
0
0
0
0
0
0
0
0
0
0
0
0
0
0
0
0
0
0
0
0
0
0
0
0
0
0
0
0
0
0
0
0
0
0
0
0
0
0
0
0
0
0
0
0
0.9996968153341466
0.9996969648460876
0.9996969341054617
0.9996966738359161
0.9996962425445373
0.9996956857605895
0.9996950331972742
0.9996943109371285
0.9996935427831538
0.9996927492924063
0.9996919479113979
0.9996911536083177
0.9996903792709344
0.9996896359773988
0.9996889332334884
0.9996882791866443
0.9996876808073369
0.9996871440429743
0.9996866739502769
0.9996862748098252
0.9996859502252592
0.9996857032093628
0.9996855362589149
0.9996854514198432
0.9996854503439099
0.9996855343379644
0.9996857044066292
0.9996859612891542
0.9996863054910694
0.999686737311193
0.999687256864476
0.9996878641011231
0.999688558822366
0.9996893406932481
0.9996902092527293
0.9996911639214036
0.999692204007085
0.9996933287085169
0.9996945371174156
0.9996958282190608
0.9996972008916281
0.9996986539044415
0.9997001859153155
0.9997017954671461
0.9997034809839005
0.999705240766148
0.9997070729862657
0.9997089756834461
0.9997109467586258
0.9997129839694584
0.9997150849254306
0.9997172470832323
0.9997194677424818
0.9997217440419015
0.999724072956032
0.9997264512925762
0.9997288756904571
0.9997313426186653
0.9997338483759756
0.9997363890916016
0.9997389607268564
0.9997415590778801
0.9997441797794937
0.9997468183102268
0.9997494699985702
0.9997521300304886
0.9997547934582242
0.9997574552104226
0.9997601101035886
0.9997627528548865
0.9997653780962757
0.9997679803899765
0.9997705542452364
0.9997730941363692
0.9997755945220141
0.9997780498655635
0.9997804546566864
0.9997828034338665
0.9997850908078623
0.9997873114859832
0.9997894602970641
0.9997915322170186
0.9997935223948274
0.9997954261788218
0.9997972391431155
0.9997989571140241
0.9998005761963227
0.9998020927991784
0.9998035036616063
0.9998048058773007
0.9998059969186994
0.9998070746601555
0.9998080374001058
0.999808883882141
0.999809613314919
0.9998102253908817
0.9998107203037756
0.9998110987650158
0.9998113620189873
0.9998115118574161
0.9998115506330197
0.9998114812727052
0.9998113072906625
0.9998110328017986
0.9998106625360512
0.9998102018542532
0.9998096567663551
0.9998090339529986
0.9998083407916162
0.9998075853885117
0.9998067766186445
0.999805924175111
0.9998050386303006
0.9998041315115801
0.9998032153955684
0.9998023040243251
0.999801412429829
0.9998005570723967
0.9997997560571185
0.999799029535114
0.9997983995276634
0.9997978887239282
0.9997975208079644
0.9997973311632042
0.9997973592205006
0.9997975407541012
0
0
0.999696916028299
0.9996969830359791
0.9996969099281433
0.999696674980854
0.9996963050708326
0.9996958192139209
0.9996952440211535
0.9996946031392665
0.9996939173992109
0.9996932049961443
0.9996924820665393
0.9996917627362614
0.9996910593105577
0.9996903824853446
0.9996897415476708
0.999689144542471
0.9996885984207726
0.9996881091712719
0.9996876819365065
0.9996873211147873
0.9996870304497445
0.9996868131090234
0.9996866717534096
0.9996866085974965
0.9996866254628507
0.9996867238245065
0.9996869048514977
0.999687169442046
0.9996875182539523
0.9996879517306758
0.9996884701235184
0.9996890735103202
0.999689761810998
0.9996905348002585
0.999691392117766
0.9996923332760455
0.9996933576663468
0.9996944645627225
0.9996956531245064
0.9996969223974097
0.9996982713134032
0.9996996986895686
0.9997012032260746
0.9997027835034351
0.9997044379791887
0.9997061649841387
0.9997079627182851
0.9997098292465652
0.9997117624945236
0.9997137602440227
0.9997158201290991
0.999717939632066
0.9997201160799585
0.9997223466414137
0.9997246283240747
0.9997269579726028
0.9997293322673727
0.9997317477239345
0.9997342006933065
0.999736687363172
0.9997392037600383
0.9997417457524215
0.9997443090551041
0.9997468892345175
0.9997494817152895
0.9997520817879947
0.9997546846181279
0.9997572852563372
0.9997598786499112
0.9997624596555394
0.9997650230533359
0.9997675635621068
0.9997700758558469
0.9997725545814211
0.9997749943773926
0.9997773898939321
0.9997797358137469
0.9997820268739458
0.9997842578887489
0.9997864237729432
0.9997885195659708
0.9997905404565263
0.9997924818075387
0.999794339181396
0.9997961083652736
0.9997977853964193
0.9997993665872439
0.9998008485500738
0.9998022282214176
0.9998035028856072
0.999804670197683
0.9998057282054026
0.9998066753702753
0.9998075105875266
0.9998082332049459
0.9998088430405727
0.9998093403992274
0.9998097260879197
0.9998100014302138
0.9998101682796743
0.9998102290325784
0.99981018664012
0.9998100446204257
0.9998098070707481
0.9998094786803113
0.9998090647443567
0.9998085711800545
0.9998080045450545
0.9998073720595927
0.9998066816331528
0.9998059418968253
0.9998051622425868
0.9998043528708576
0.9998035248467257
0.9998026901648149
0.9998018618222422
0.9998010539095427
0.9998002816935484
0.9997995616554518
0.999798911362285
0.9997983497364129
0.9997978968832821
0.9997975736270626
0.9997973915357958
0.9997973639339788
0.9997974597438485
0
0
0.9996971193069292
0.9996971389879065
0.9996970376449618
0.9996968147057356
0.9996964754662291
0.9996960344573904
0.9996955149091153
0.9996949357853759
0.9996943146536361
0.9996936677259165
0.9996930097067134
0.9996923536055837
0.9996917109224204
0.9996910917971937
0.9996905051381351
0.9996899587404835
0.999689459404964
0.9996890130463165
0.9996886247909753
0.9996882990647046
0.999688039671199
0.9996878498622283
0.999687732399994
0.9996876896124286
0.9996877234420687
0.999687835489137
0.9996880270493391
0.9996882991468903
0.9996886525631931
0.9996890878615885
0.9996896054085261
0.9996902053915079
0.9996908878340981
0.999691652608295
0.9996924994445157
0.9996934279394547
0.9996944375620155
0.9996955276575579
0.9996966974506302
0.9996979460463933
0.9996992724308909
0.9997006754703431
0.9997021539096116
0.9997037063699814
0.9997053313463956
0.999707027204278
0.9997087921760621
0.9997106243575511
0.9997125217042064
0.9997144820274917
0.9997165029913536
0.9997185821089566
0.9997207167397401
0.9997229040869111
0.9997251411954373
0.9997274249506329
0.9997297520774074
0.9997321191402497
0.999734522544016
0.9997369585355904
0.999739423206469
0.999741912496327
0.9997444221976209
0.9997469479612614
0.9997494853034091
0.9997520296134105
0.9997545761629087
0.9997571201161478
0.9997596565414777
0.9997621804240581
0.9997646866797686
0.999767170170291
0.9997696257193542
0.9997720481300926
0.999774432203484
0.9997767727578002
0.9997790646490085
0.999781302792042
0.999783482182856
0.9997855979211611
0.9997876452337394
0.9997896194982127
0.9997915162671452
0.9997933312923479
0.9997950605492487
0.9997967002611843
0.9997982469234757
0.9997996973271435
0.999801048582128
0.9998022981398711
0.9998034438151475
0.9998044838070205
0.9998054167188282
0.9998062415771182
0.9998069578494677
0.9998075654611531
0.99980806481067
0.9998084567841161
0.9998087427685199
0.9998089246641974
0.9998090048963078
0.999808986425787
0.9998088727599301
0.999808667962918
0.999808376666673
0.9998080040824641
0.9998075560137851
0.9998070388710414
0.9998064596886989
0.9998058261455005
0.9998051465883504
0.999804430060206
0.9998036863326091
0.9998029259429099
0.9998021602343755
0.9998014013887054
0.9998006624573497
0.9997999573980376
0.9997993011217755
0.9997987091676278
0.9997981973835247
0.9997977817791616
0.9997974808101283
0.9997973031659242
0.9997972466667697
0.9997973051675115
0
0
0.99969743370314
0.9996974303048096
0.9996973069539262
0.9996970710469513
0.9996967384950365
0.9996963234838921
0.9996958406911621
0.9996953051295007
0.9996947323727903
0.99969413667112
0.999693530968063
0.999692927005253
0.9996923353753306
0.9996917655318311
0.9996912258665466
0.9996907238013384
0.9996902658764548
0.9996898578327384
0.9996895046900167
0.9996892108202171
0.9996889800143332
0.9996888155431954
0.9996887202123274
0.9996886964112291
0.9996887461573959
0.9996888711354603
0.9996890727317949
0.9996893520649566
0.9996897100122751
0.9996901472329356
0.9996906641878185
0.9996912611564114
0.9996919382510218
0.999692695428568
0.9996935325001572
0.9996944491386851
0.9996954448846426
0.9996965191503498
0.9996976712227658
0.9996989002650802
0.9997002053172138
0.9997015852954116
0.9997030389910498
0.9997045650688126
0.9997061620643489
0.9997078283815571
0.9997095622895894
0.9997113619197129
0.9997132252621092
0.9997151501627396
0.9997171343203501
0.9997191752837268
0.9997212704492756
0.9997234170590263
0.9997256121991198
0.9997278527988824
0.9997301356305327
0.9997324573096107
0.9997348142961779
0.9997372028968645
0.9997396192678036
0.9997420594185197
0.9997445192168044
0.9997469943946308
0.9997494805551388
0.9997519731807178
0.9997544676422163
0.999756959209292
0.9997594430619062
0.9997619143029715
0.9997643679721389
0.9997667990607096
0.9997692025276446
0.9997715733166347
0.9997739063741887
0.9997761966686814
0.9997784392102906
0.9997806290717538
0.9997827614098533
0.9997848314875349
0.9997868346965517
0.9997887665805231
0.9997906228582849
0.9997923994474042
0.9997940924877255
0.9997956983648099
0.9997972137331361
0.9997986355389147
0.9997999610423944
0.9998011878395159
0.9998023138828028
0.9998033375013677
0.9998042574199443
0.9998050727768485
0.9998057831408239
0.9998063885267063
0.9998068894099165
0.9998072867397703
0.9998075819516732
0.9998077769782546
0.9998078742595826
0.9998078767525883
0.9998077879399225
0.9998076118384528
0.9998073530077106
0.9998070165585672
0.9998066081625201
0.999806134061905
0.9998056010814018
0.999805016641096
0.9998043887713775
0.999803726129483
0.9998030380167464
0.9998023343948215
0.9998016259024327
0.9998009238689868
0.9998002403074849
0.9997995878367961
0.9997989796366351
0.9997984294370764
0.999797951416977
0.9997975583223822
0.9997972616714221
0.9997970718074838
0.9997970019827747
0.999797055769834
0
0
0.9996978908298317
0.9996978360541994
0.9996976749527202
0.9996974182662052
0.9996970817619243
0.9996966761117833
0.9996962132210492
0.9996957062984159
0.9996951682378233
0.9996946110876537
0.9996940462355576
0.9996934842144092
0.9996929346145441
0.9996924060990954
0.9996919064574177
0.9996914426535983
0.9996910208820748
0.999690646628619
0.9996903247316095
0.9996900594404633
0.9996898544706259
0.9996897130547905
0.9996896379900189
0.9996896316806864
0.999689696177297
0.9996898332113563
0.9996900442264655
0.9996903304058783
0.9996906926967238
0.9996911318311477
0.9996916483445779
0.9996922425913661
0.9996929147579853
0.9996936648740349
0.9996944928212124
0.999695398340474
0.9996963810375435
0.9996974403869623
0.9996985757348272
0.9996997863003956
0.9997010711766744
0.9997024293301774
0.9997038595999442
0.9997053606959816
0.9997069311972269
0.9997085695491711
0.9997102740612305
0.9997120429039968
0.9997138741064414
0.9997157655531976
0.9997177149819899
0.9997197199813133
0.9997217779884391
0.999723886287837
0.9997260420100715
0.9997282421312715
0.9997304834732186
0.999732762704136
0.9997350763402265
0.9997374207480318
0.9997397921476517
0.9997421866168835
0.9997446000963186
0.9997470283954399
0.9997494671997521
0.999751912078971
0.9997543584962947
0.9997568018187748
0.9997592373287859
0.9997616602366037
0.9997640656940728
0.9997664488093548
0.9997688046627266
0.9997711283233898
0.9997734148672555
0.9997756593956323
0.9997778570547725
0.9997800030561816
0.9997820926976202
0.999784121384694
0.9997860846529355
0.9997879781902589
0.9997897978596775
0.9997915397221473
0.999793200059421
0.9997947753967613
0.9997962625253957
0.9997976585245594
0.999798960783013
0.9998001670198831
0.9998012753047247
0.9998022840766737
0.9998031921626048
0.9998039987941897
0.9998047036238048
0.9998053067392152
0.9998058086770334
0.9998062104349175
0.9998065134825648
0.9998067197715206
0.9998068317439086
0.9998068523401671
0.9998067850059567
0.9998066336983776
0.9998064028917057
0.9998060975828226
0.9998057232965607
0.9998052860911196
0.9998047925636925
0.9998042498562307
0.9998036656611479
0.9998030482266032
0.9998024063608549
0.9998017494326152
0.99980108736284
0.9998004306062808
0.9997997901342062
0.9997991773771279
0.9997986040726557
0.9997980820177641
0.9997976232140795
0.9997972393344063
0.9997969404230798
0.999796734833827
0.9997966378244535
0.999796658899296
0
0
0.9996984662610773
0.9996983403634604
0.9996981297919523
0.9996978430220244
0.9996974899130601
0.9996970800972012
0.999696624473582
0.9996961336663399
0.9996956181425818
0.9996950883003143
0.999694554083918
0.9996940247484309
0.9996935088498656
0.9996930142374995
0.9996925480478224
0.9996921167225767
0.9996917260459146
0.9996913811865771
0.9996910867416433
0.9996908467810115
0.9996906648912627
0.9996905442176287
0.9996904875033646
0.9996904971262776
0.9996905751322162
0.9996907232655196
0.9996909429964155
0.9996912355455019
0.9996916019054025
0.9996920428597813
0.9996925589998373
0.9996931507384937
0.9996938183224037
0.999694561841996
0.9996953812396752
0.9996962763163875
0.9996972467366736
0.9996982920323985
0.9996994116052675
0.9997006047283128
0.999701870546446
0.9997032080762464
0.9997046162050728
0.9997060936896572
0.999707639154255
0.9997092510884998
0.9997109278450333
0.9997126676370434
0.9997144685357675
0.9997163284680992
0.9997182452143383
0.9997202164062103
0.9997222395251992
0.9997243119013036
0.9997264307122555
0.9997285929833042
0.9997307955876041
0.9997330352472887
0.9997353085352704
0.9997376118778469
0.9997399415581363
0.9997422937204085
0.999744664375345
0.9997470494062738
0.9997494445763923
0.999751845537031
0.9997542478369533
0.9997566469327246
0.9997590382001397
0.9997614169467234
0.9997637784252827
0.9997661178485021
0.9997684304045473
0.9997707112736496
0.9997729556456184
0.9997751587382337
0.9997773158164481
0.9997794222123262
0.9997814733456402
0.9997834647450227
0.9997853920695791
0.9997872511308457
0.9997890379149815
0.9997907486050619
0.9997923796033527
0.9997939275534237
0.9997953893619788
0.9997967622202484
0.9997980436248342
0.9997992313978493
0.9998003237062556
0.9998013190802549
0.9998022164306544
0.9998030150650835
0.9998037147030154
0.9998043154894949
0.9998048180075658
0.9998052232893432
0.9998055328257572
0.9998057485749617
0.9998058729694845
0.9998059089221482
0.9998058598308812
0.9998057295824803
0.9998055225554595
0.9998052436220559
0.9998048981494856
0.9998044920004336
0.9998040315327661
0.9998035235982486
0.9998029755398323
0.9998023951863948
0.999801790843992
0.999801171282987
0.999800545718292
0.9997999237700365
0.9997993154023151
0.999798730862377
0.9997981806268831
0.9997976751399729
0.9997972244647662
0.9997968383913328
0.9997965269345774
0.9997962986725994
0.9997961633683575
0.9997961295488972
0
0
0.9996991292859284
0.9996989246277213
0.9996986559369913
0.9996983283463089
0.999697948600602
0.9996975249645352
0.9996970660716793
0.9996965805291926
0.9996960772472004
0.9996955650587167
0.9996950524392708
0.9996945474516876
0.9996940576733173
0.9996935901271043
0.9996931512624917
0.9996927469628323
0.9996923825615648
0.9996920628654214
0.9996917921840159
0.9996915743626085
0.9996914128155946
0.9996913105596195
0.9996912702455494
0.9996912941887929
0.9996913843975376
0.999691542598764
0.9996917702618935
0.9996920686201085
0.9996924386893332
0.9996928812849991
0.9996933970366416
0.9996939864005028
0.9996946496702108
0.9996953869857292
0.9996961983406538
0.9996970835880512
0.9996980424449272
0.9996990744955089
0.9997001791934177
0.999701355862919
0.9997026036993154
0.9997039217686592
0.9997053090068444
0.999706764218242
0.9997082860739346
0.9997098731097023
0.9997115237238076
0.9997132361747233
0.9997150085788463
0.999716838908327
0.9997187249890569
0.9997206644989356
0.9997226549664463
0.9997246937696627
0.9997267781357075
0.9997289051407753
0.9997310717107386
0.9997332746224408
0.9997355105056858
0.9997377758460247
0.9997400669883447
0.9997423801413405
0.9997447113828805
0.9997470566663281
0.9997494118278264
0.9997517725945925
0.9997541345942189
0.9997564933650195
0.999758844367402
0.9997611829962845
0.9997635045945334
0.9997658044674177
0.9997680778980396
0.9997703201637206
0.9997725265532864
0.9997746923852046
0.9997768130265048
0.9997788839124169
0.999780900566631
0.9997828586220988
0.9997847538422696
0.9997865821426486
0.9997883396125673
0.9997900225370357
0.999791627418551
0.9997931509987246
0.9997945902796013
0.999795942544517
0.9997972053783792
0.9997983766872173
0.9997994547168858
0.9998004380707916
0.9998013257265409
0.9998021170513861
0.9998028118164061
0.9998034102093184
0.9998039128458915
0.9998043207798851
0.9998046355115282
0.9998048589944879
0.9998049936413812
0.9998050423278083
0.9998050083949859
0.9998048956509732
0.9998047083705601
0.9998044512937914
0.9998041296231444
0.9998037490192203
0.9998033155947762
0.9998028359066877
0.9998023169454575
0.9998017661214098
0.9998011912457807
0.9998006005041774
0.9998000024228415
0.999799405826932
0.9997988197765085
0.999798253460313
0.9997977161011162
0.9997972168918757
0.9997967647710359
0.999796368083027
0.999796035156526
0.9997957740229215
0.999795591638382
0.9997954934175577
0
0
0.9996998562512455
0.9996995694834108
0.9996992363182835
0.9996988601193733
0.9996984459973197
0.9996980000823483
0.999697528996359
0.9996970399154589
0.9996965402401278
0.9996960373074807
0.9996955383339449
0.9996950502986892
0.9996945798200984
0.999694133101702
0.9996937159080467
0.9996933335503309
0.9996929908854905
0.9996926923276206
0.999692441866198
0.9996922430879666
0.9996920992010656
0.999692013060254
0.9996919871920846
0.999692023819351
0.9996921248842839
0.9996922920702618
0.9996925268217637
0.9996928303625418
0.9996932037118947
0.9996936476991295
0.9996941629761876
0.9996947500285783
0.9996954091846352
0.9996961406232707
0.9996969443802664
0.9996978203532795
0.9996987683056209
0.9996997878689826
0.9997008785451635
0.9997020397069757
0.9997032705983792
0.9997045703340145
0.9997059378981752
0.999707372143389
0.9997088717886393
0.9997104354173865
0.9997120614754168
0.9997137482686718
0.999715493961077
0.999717296572515
0.9997191539769615
0.9997210639009156
0.9997230239221395
0.9997250314688363
0.9997270838192716
0.9997291781019597
0.999731311296422
0.9997334802346218
0.999735681603085
0.9997379119458025
0.999740167667916
0.9997424450402732
0.9997447402048539
0.9997470491811342
0.9997493678733895
0.9997516920789908
0.9997540174976809
0.999756339741877
0.9997586543479745
0.9997609567886767
0.9997632424863208
0.9997655068272026
0.9997677451768555
0.999769952896265
0.9997721253589641
0.9997742579689645
0.9997763461794501
0.9997783855121722
0.9997803715774549
0.9997823000947177
0.9997841669134242
0.9997859680343342
0.999787699630952
0.9997893580710374
0.9997909399380586
0.9997924420524389
0.9997938614924744
0.9997951956147677
0.9997964420740475
0.9997975988422269
0.9997986642265779
0.9997996368868745
0.9998005158514048
0.9998013005317146
0.9998019907360047
0.9998025866810707
0.9998030890027308
0.9998034987646521
0.9998038174655646
0.9998040470447829
0.9998041898860632
0.9998042488197261
0.9998042271230944
0.9998041285191701
0.9998039571735841
0.9998037176897022
0.9998034151018442
0.9998030548663902
0.9998026428505806
0.9998021853184785
0.999801688913453
0.999801160636407
0.999800607819074
0.9998000380900378
0.9997994593295373
0.9997988796134423
0.9997983071527657
0.9997977502113842
0.9997972169717335
0.999796715422428
0.9997962533511063
0.9997958381221876
0.9997954764573553
0.9997951746283104
0.9997949382322995
0.9997947709562972
0
0
0.9997006274244692
0.999700256274585
0.9996998546035226
0.9996994247502106
0.9996989700871428
0.9996984949929113
0.9996980046317994
0.9996975047562247
0.9996970013388556
0.9996965004807254
0.999696008281284
0.9996955306884271
0.999695073415921
0.9996946418900754
0.9996942412046945
0.9996938760958108
0.9996935509333533
0.9996932697224481
0.9996930361111703
0.9996928534035677
0.9996927245760677
0.9996926522957463
0.9996926389393155
0.9996926866121871
0.999692797166991
0.9996929722212122
0.999693213173604
0.9996935212192906
0.9996938973633764
0.9996943424331138
0.9996948570885341
0.9996954418316718
0.9996960970143423
0.9996968228446379
0.9996976193921348
0.9996984865919918
0.9996994242479516
0.9997004320344287
0.9997015094976993
0.9997026560563781
0.999703871001203
0.9997051534942993
0.9997065025679454
0.9997079171230105
0.9997093959270783
0.9997109376124143
0.9997125406737978
0.9997142034663662
0.9997159242034779
0.9997177009547484
0.9997195316442518
0.9997214140490418
0.9997233457979771
0.999725324370995
0.999727347098827
0.9997294111632752
0.9997315135980556
0.9997336512903142
0.999735820982813
0.9997380192768907
0.9997402426361929
0.9997424873912586
0.9997447497449582
0.9997470257788634
0.9997493114605297
0.9997516026517635
0.9997538951178516
0.9997561845378001
0.9997584665155576
0.9997607365922571
0.9997629902594316
0.9997652229732225
0.9997674301695234
0.9997696072800559
0.9997717497493077
0.9997738530523027
0.9997759127131212
0.9997779243241133
0.9997798835657157
0.9997817862267762
0.9997836282252923
0.9997854056294488
0.9997871146788341
0.9997887518057119
0.9997903136562174
0.9997917971113262
0.9997931993074773
0.9997945176566826
0.9997957498659882
0.9997968939561436
0.9997979482793345
0.9997989115358337
0.9997997827894581
0.9998005614816795
0.9998012474443081
0.9998018409106046
0.9998023425247753
0.9998027533497144
0.9998030748729834
0.9998033090109061
0.9998034581107891
0.9998035249511619
0.9998035127400465
0.999803425111148
0.99980326611795
0.9998030402255549
0.9998027523001813
0.9998024075960296
0.9998020117392682
0.9998015707086844
0.9998010908124519
0.9998005786599116
0.9998000411274386
0.9997994853180018
0.9997989185127836
0.9997983481092736
0.9997977815459096
0.9997972262269342
0.9997966894329247
0.9997961781795325
0.9997956991192293
0.9997952585124404
0.9997948619395319
0.9997945141325446
0.999794219043518
0.9997939794013928
0
0
0.9997014247824192
0.9997009685241839
0.9997004962034206
0.9997000092042428
0.9996995093642652
0.9996989998367161
0.9996984845055399
0.99969796780903
0.9996974545323363
0.999696949687442
0.9996964583370052
0.999695985492562
0.9996955360387911
0.9996951146642086
0.9996947258134038
0.9996943736594904
0.9996940620875703
0.9996937946873177
0.9996935747534795
0.9996934052920764
0.9996932890301832
0.9996932284281517
0.9996932256932204
0.9996932827938044
0.9996934014737425
0.9996935832661735
0.9996938295066231
0.9996941413451941
0.9996945197576084
0.9996949655551316
0.9996954793932393
0.9996960617791263
0.9996967130779891
0.9996974335182254
0.9996982231955135
0.9996990820759475
0.9997000099981974
0.9997010066748964
0.9997020716932176
0.9997032045148537
0.999704404475371
0.9997056707831347
0.9997070025177847
0.9997083986284583
0.9997098579317294
0.9997113791094558
0.9997129607065077
0.9997146011285559
0.99971629863989
0.9997180513614432
0.9997198572689895
0.9997217141916782
0.999723619810875
0.9997255716594662
0.9997275671215909
0.9997296034329549
0.9997316776816856
0.9997337868098725
0.9997359276157587
0.9997380967567098
0.9997402907529285
0.999742505992032
0.999744738734456
0.9997469851197909
0.9997492411740092
0.9997515028176791
0.9997537658751163
0.9997560260845498
0.9997582791092529
0.9997605205496914
0.9997627459566353
0.9997649508452595
0.9997671307101751
0.9997692810413901
0.9997713973411254
0.9997734751414684
0.999775510022766
0.9997774976327207
0.9997794337060767
0.999781314084822
0.9997831347387947
0.99978489178659
0.9997865815166344
0.9997882004083121
0.9997897451529951
0.9997912126748425
0.9997926001512228
0.9997939050325955
0.9997951250617245
0.9997962582920418
0.9997973031050388
0.9997982582265116
0.9997991227415445
0.9997998961080677
0.9998005781688912
0.9998011691620607
0.9998016697294674
0.9998020809235678
0.9998024042121697
0.9998026414811515
0.9998027950351001
0.9998028675957228
0.9998028622980383
0.9998027826841801
0.999802632694794
0.9998024166578124
0.9998021392745201
0.9998018056026021
0.9998014210359057
0.999800991280414
0.9998005223260352
0.999800020413509
0.9997994919953223
0.999798943689304
0.999798382225218
0.9997978143839138
0.9997972469223981
0.9997966864855878
0.9997961395233718
0.9997956121968832
0.9997951102230456
0.9997946387889801
0.9997942024179333
0.9997938047904987
0.9997934483184845
0.9997931348128218
0
0
0.9997022323028091
0.99970169155304
0.9997011476924684
0.9997006012688329
0.9997000530304477
0.9996995051214722
0.9996989602935119
0.9996984219106865
0.9996978937384605
0.9996973797982825
0.9996968842309875
0.9996964112094646
0.9996959648506204
0.9996955491502509
0.9996951679381654
0.9996948248452502
0.9996945232810923
0.9996942664218403
0.9996940572053701
0.9996938983317685
0.9996937922677258
0.9996937412538318
0.9996937473136047
0.9996938122635883
0.9996939377238009
0.9996941251282119
0.999694375734775
0.999694690634902
0.9996950707620798
0.9996955168996513
0.9996960296875718
0.9996966096282417
0.9996972570913012
0.9996979723175279
0.999698755421765
0.9996996063950596
0.9997005251059441
0.9997015113010655
0.9997025646051045
0.9997036845201922
0.9997048704247746
0.9997061215721335
0.9997074370885084
0.999708815971031
0.9997102570854189
0.999711759163628
0.9997133208014103
0.9997149404559754
0.9997166164436989
0.999718346938063
0.9997201299677824
0.9997219634152863
0.9997238450155088
0.9997257723551571
0.9997277428724031
0.9997297538571638
0.9997318024519166
0.9997338856532036
0.999736000313774
0.9997381431455072
0.9997403107230693
0.9997424994884306
0.9997447057561968
0.999746925719874
0.9997491554590101
0.9997513909473258
0.999753628061769
0.9997558625925921
0.9997580902543778
0.9997603066980955
0.9997625075241076
0.9997646882961794
0.9997668445564084
0.9997689718411018
0.9997710656975003
0.999773121701356
0.9997751354752479
0.999777102707611
0.9997790191723581
0.9997808807490256
0.9997826834433254
0.9997844234079962
0.9997860969638265
0.9997877006207185
0.9997892310986544
0.9997906853484102
0.9997920605718792
0.9997933542418276
0.9997945641209449
0.9997956882800086
0.99979672511502
0.9997976733631353
0.9997985321172634
0.9997993008391465
0.9997999793708268
0.9998005679443152
0.9998010671893902
0.9998014781393547
0.9998018022347046
0.99980204132454
0.9998021976656976
0.9998022739194355
0.9998022731456516
0.9998021987944533
0.9998020546950459
0.9998018450416997
0.9998015743767118
0.9998012475700395
0.9998008697954135
0.9998004465024468
0.9997999833843119
0.9997994863404015
0.9997989614336164
0.9997984148410777
0.9997978527968641
0.9997972815277079
0.9997967071823238
0.9997961357478611
0.9997955729522952
0.999795024178944
0.9997944943449533
0.9997939877713884
0.9997935080147294
0.999793057887354
0.9997926387109008
0.9997922514650421
0
0
0.9997030360248648
0.9997024122371542
0.9997017968427907
0.9997011897732344
0.9997005909936084
0.9997000017815516
0.9996994239725184
0.9996988600386412
0.9996983128464016
0.9996977855511889
0.9996972814828595
0.9996968040534469
0.9996963566758545
0.9996959427061975
0.9996955653968852
0.9996952278612947
0.9996949330496144
0.9996946837333384
0.9996944824961546
0.9996943317302414
0.9996942336365714
0.9996941902281844
0.9996942033353621
0.9996942746121539
0.9996944055435287
0.9996945974528313
0.9996948515090628
0.999695168733865
0.9996955500078876
0.999695996076554
0.9996965075549954
0.9996970849322728
0.9996977285747113
0.9996984387285192
0.9996992155215609
0.9997000589644868
0.9997009689511104
0.9997019452582507
0.9997029875449488
0.9997040953512822
0.9997052680966885
0.9997065050780283
0.9997078054672955
0.9997091683092132
0.9997105925186139
0.9997120768778397
0.9997136200340684
0.9997152204967863
0.99971687663532
0.9997185866766373
0.9997203487033319
0.9997221606519986
0.9997240203119061
0.9997259253241718
0.999727873181352
0.9997298612276355
0.9997318866595567
0.9997339465274157
0.9997360377373173
0.9997381570540025
0.9997403011043945
0.9997424663820206
0.9997446492522273
0.9997468459583407
0.9997490526286918
0.9997512652846366
0.9997534798494967
0.9997556921585263
0.9997578979698315
0.9997600929763248
0.9997622728186332
0.999764433099025
0.999766569396258
0.9997686772813916
0.9997707523344549
0.9997727901619832
0.9997747864153037
0.99977673680955
0.9997786371432765
0.9997804833186155
0.999782271361843
0.999783997444256
0.9997856579032206
0.9997872492632641
0.9997887682570608
0.9997902118461611
0.9997915772413036
0.9997928619221411
0.9997940636562269
0.9997951805170682
0.9997962109011077
0.9997971535434271
0.9997980075320474
0.9997987723206236
0.9997994477394236
0.9998000340043927
0.999800531724224
0.999800941905233
0.9998012659539919
0.9998015056775269
0.999801663281047
0.9998017413630156
0.9998017429075453
0.9998016712739071
0.9998015301831258
0.999801323701419
0.9998010562204104
0.9998007324337918
0.9998003573102916
0.9997999360625482
0.9997994741116124
0.999798977046435
0.999798450578003
0.9997979004878352
0.999797332569992
0.9997967525651158
0.9997961660877387
0.9997955785490874
0.9997949950637222
0.9997944203522646
0.9997938586327859
0.9997933135250311
0.9997927878198001
0.9997922835802677
0.9997918013728755
0.9997913415716426
0
0
0.9997038237577608
0.9997031188679342
0.9997024326117872
0.9997017644808174
0.9997011138380177
0.999700481265987