# vtk DataFile Version 2.0
2D-ADE data file 
ASCII
DATASET RECTILINEAR_GRID
DIMENSIONS 128 128 1 
X_COORDINATES 128 int
0 1 2 3 4 5 6 7 8 9 10 11 12 13 14 15 16 17 18 19 20 21 22 23 24 25 26 27 28 29 30 31 32 33 34 35 36 37 38 39 40 41 42 43 44 45 46 47 48 49 50 51 52 53 54 55 56 57 58 59 60 61 62 63 64 65 66 67 68 69 70 71 72 73 74 75 76 77 78 79 80 81 82 83 84 85 86 87 88 89 90 91 92 93 94 95 96 97 98 99 100 101 102 103 104 105 106 107 108 109 110 111 112 113 114 115 116 117 118 119 120 121 122 123 124 125 126 127 
Y_COORDINATES 128 int
0 1 2 3 4 5 6 7 8 9 10 11 12 13 14 15 16 17 18 19 20 21 22 23 24 25 26 27 28 29 30 31 32 33 34 35 36 37 38 39 40 41 42 43 44 45 46 47 48 49 50 51 52 53 54 55 56 57 58 59 60 61 62 63 64 65 66 67 68 69 70 71 72 73 74 75 76 77 78 79 80 81 82 83 84 85 86 87 88 89 90 91 92 93 94 95 96 97 98 99 100 101 102 103 104 105 106 107 108 109 110 111 112 113 114 115 116 117 118 119 120 121 122 123 124 125 126 127 
Z_COORDINATES 1 int
0
POINT_DATA 16384
SCALARS density double
LOOKUP_TABLE default
0
0
0
0
0
0
0
0
0
0
0
0
0
0
0
0
0
0
0
0
0
0
0
0
0
0
0
0
0
0
0
0
0
0
0
0
0
0
0
0
0
0
0
0
0
0
0
0
0
0
0
0
0
0
0
0
0
0
0
0
0
0
0
0
0
0
0
0
0
0
0
0
0
0
0
0
0
0
0
0
0
0
0
0
0
0
0
0
0
0
0
0
0
0
0
0
0
0
0
0
0
0
0
0
0
0
0
0
0
0
0
0
0
0
0
0
0
0
0
0
0
0
0
0
0
0
0
0
0
0.9996901896108926
0.9996901329037051
0.9996899727281405
0.9996896909704241
0.9996892656432944
0.9996887246978222
0.9996881002271621
0.9996874178479899
0.9996866992262754
0.9996859637969263
0.9996852285309213
0.9996845080076959
0.9996838147494461
0.9996831595282912
0.9996825515895967
0.9996819988434417
0.9996815080354521
0.9996810848958089
0.9996807342679288
0.9996804602205067
0.9996802661454547
0.9996801548435053
0.9996801285989764
0.9996801892450349
0.9996803382205892
0.9996805766197863
0.9996809052349556
0.999681324593735
0.9996818349910044
0.9996824365161961
0.9996831290764665
0.99968391241616
0.9996847861329519
0.999685749691014
0.9996868024315129
0.999687943580721
0.9996891722559994
0.9996904874698846
0.9996918881325025
0.9996933730525015
0.9996949409367085
0.9996965903886688
0.9996983199062488
0.9997001278784475
0.999702012581576
0.9997039721749336
0.9997060046961252
0.9997081080561372
0.9997102800343032
0.9997125182732606
0.9997148202740279
0.9997171833912897
0.999719604829004
0.9997220816364227
0.9997246107046174
0.9997271887636086
0.9997298123801704
0.9997324779564025
0.9997351817291413
0.9997379197702883
0.9997406879881172
0.9997434821296298
0.9997462977840184
0.9997491303872873
0.9997519752280805
0.9997548274547599
0.9997576820837644
0.999760534009277
0.9997633780142248
0.9997662087826082
0.9997690209131742
0.9997718089344143
0.9997745673208687
0.9997772905107062
0.9997799729245365
0.9997826089853997
0.9997851931398665
0.9997877198801707
0.999790183767282
0.9997925794548195
0.9997949017136909
0.9997971454573353
0.9997993057674364
0.9998013779199644
0.9998033574114046
0.9998052399850111
0.9998070216569421
0.999808698742113
0.999810267879618
0.9998117260575703
0.9998130706372247
0.9998142993762501
0.9998154104510422
0.9998164024779838
0.9998172745335852
0.9998180261734682
0.9998186574501886
0.9998191689299386
0.999819561708217
0.9998198374246062
0.9998199982768672
0.9998200470346217
0.9998199870529926
0.9998198222866371
0.9998195573047347
0.9998191973075946
0.9998187481456656
0.9998182163418848
0.9998176091184403
0.9998169344292014
0.9998162009991953
0.9998154183726757
0.9998145969718455
0.9998137481691473
0.999812884373584
0.9998120191292152
0.9998111672311772
0.9998103449031078
0.9998095699712127
0.9998088617940489
0.9998082407860295
0.9998077296135557
0.9998073546514707
0.9998071366416672
0.9998070447532326
0.9998070421231068
0
0
0.9996900659814697
0.9996900679140334
0.9996899403217102
0.9996896800522402
0.9996893068289111
0.9996888370433005
0.999688291082439
0.9996876899064302
0.9996870534627083
0.999686399286844
0.9996857428567981
0.9996850978044376
0.9996844760693847
0.9996838880395985
0.9996833427247935
0.9996828479161084
0.9996824103269727
0.999682035717833
0.9996817290079612
0.9996814943748991
0.9996813353425452
0.9996812548590503
0.9996812553656121
0.9996813388571073
0.9996815069353848
0.9996817608559838
0.9996821015689417
0.9996825297542982
0.9996830458528243
0.9996836500924607
0.999684342510889
0.9996851229746203
0.9996859911949492
0.9996869467410857
0.9996879890507473
0.9996891174384802
0.9996903311019387
0.9996916291263565
0.9996930104874017
0.9996944740526236
0.9996960185816552
0.9996976427253542
0.9996993450240276
0.9997011239049042
0.9997029776789862
0.9997049045374222
0.9997069025475243
0.9997089696485584
0.9997111036474174
0.9997133022142968
0.9997155628784695
0.9997178830242739
0.9997202598874001
0.9997226905515819
0.99972517194577
0.9997277008418848
0.9997302738532201
0.9997328874335862
0.999735537877254
0.9997382213197816
0.9997409337397812
0.9997436709616879
0.9997464286595878
0.999749202362156
0.9997519874587432
0.9997547792066578
0.9997575727396648
0.9997603630777308
0.999763145138031
0.9997659137472202
0.9997686636549706
0.9997713895487634
0.9997740860699091
0.9997767478307689
0.9997793694331283
0.9997819454876756
0.999784470634512
0.999786939564619
0.9997893470422002
0.9997916879277897
0.9997939572020217
0.9997961499899481
0.9997982615857696
0.9998002874778489
0.9998022233738667
0.9998040652259736
0.9998058092557951
0.9998074519791391
0.9998089902302648
0.9998104211855685
0.9998117423865642
0.9998129517620289
0.9998140476492169
0.9998150288140514
0.9998158944702336
0.9998166442972333
0.9998172784571605
0.9998177976105465
0.9998182029311188
0.9998184961196926
0.9998186794173598
0.9998187556182131
0.9998187280819216
0.999818600746522
0.9998183781419051
0.9998180654045175
0.9998176682939203
0.9998171932119081
0.9998166472249814
0.9998160380910258
0.999815374291164
0.9998146650677118
0.9998139204689002
0.9998131514003579
0.9998123696853275
0.9998115881341935
0.9998108206162686
0.9998100820874055
0.9998093886064665
0.9998087573648133
0.9998082067865527
0.9998077549780846
0.9998074177461468
0.9998072048129139
0.9998071239556033
0.9998071605247024
0
0
0.9996900995248058
0.9996901333200229
0.9996900261204031
0.9996897857027234
0.9996894487434624
0.9996890272206505
0.9996885381045866
0.9996879994320248
0.9996874284264943
0.9996868405165051
0.9996862497544061
0.9996856687318766
0.9996851086094204
0.9996845792146525
0.9996840891730435
0.999683646021769
0.9996832563179453
0.9996829257408414
0.9996826591863232
0.9996824608523099
0.9996823343158449
0.9996822826023772
0.9996823082477452
0.9996824133534032
0.9996825996354155
0.9996828684677737
0.9996832209205103
0.9996836577930918
0.9996841796434902
0.9996847868133596
0.9996854794496446
0.9996862575229758
0.9996871208431414
0.9996880690719171
0.9996891017335129
0.9996902182228761
0.9996914178120616
0.9996926996548907
0.9996940627900724
0.9996955061429849
0.9996970285262705
0.9996986286394186
0.999700305067473
0.9997020562790206
0.9997038806235856
0.9997057763285684
0.9997077414958425
0.9997097740981371
0.9997118719753073
0.9997140328306104
0.9997162542270774
0.9997185335840933
0.9997208681742672
0.9997232551206897
0.9997256913946613
0.9997281738139766
0.9997306990418373
0.999733263586476
0.9997358638015541
0.9997384958874069
0.9997411558931937
0.9997438397200089
0.9997465431250125
0.9997492617266224
0.9997519910108073
0.9997547263385256
0.9997574629543239
0.9997601959961288
0.9997629205062383
0.9997656314435206
0.9997683236968118
0.9997709920995104
0.9997736314453278
0.9997762365051841
0.9997788020451818
0.9997813228456243
0.9997837937210013
0.9997862095408703
0.9997885652515494
0.9997908558985195
0.9997930766494395
0.9997952228176502
0.9997972898860513
0.9997992735312186
0.9998011696476266
0.9998029743718385
0.9998046841065267
0.9998062955441736
0.9998078056903241
0.9998092118862514
0.9998105118309133
0.999811703602079
0.999812785676535
0.9998137569492733
0.9998146167516171
0.9998153648682263
0.9998160015529969
0.9998165275438552
0.9998169440765333
0.9998172528974083
0.9998174562755711
0.9998175570143076
0.9998175584622622
0.9998174645245655
0.9998172796743137
0.999817008964785
0.9998166580428868
0.999816233164307
0.9998157412109223
0.9998151897109159
0.9998145868620648
0.9998139415585807
0.9998132634218706
0.999812562833629
0.9998118509689189
0.9998111398271503
0.9998104422698892
0.99980977201854
0.9998091435730464
0.9998085719839828
0.9998080730495903
0.9998076622787494
0.9998073530073347
0.9998071519919303
0.9998070852480271
0.9998071542099325
0
0
0.9996903370680584
0.9996903498403659
0.9996902309795459
0.9996899997950285
0.9996896808615163
0.9996892876681851
0.999688837206209
0.9996883442179986
0.9996878231076632
0.9996872875406555
0.9996867501488913
0.9996862223259333
0.9996857143181155
0.9996852352806088
0.9996847933379481
0.9996843956578083
0.9996840485347933
0.9996837574708823
0.9996835272511472
0.9996833620146597
0.9996832653202258
0.9996832402065352
0.9996832892467432
0.9996834145977225
0.9996836180442475
0.9996839010384259
0.9996842647346724
0.9996847100205795
0.9996852375439637
0.9996858477364324
0.9996865408337249
0.9996873168931261
0.9996881758081925
0.9996891173210453
0.9996901410324417
0.9996912464098587
0.9996924327937565
0.9996936994022468
0.9996950453343073
0.9996964695717393
0.9996979709800001
0.9996995483080843
0.9997012001875724
0.9997029251310073
0.9997047215296992
0.9997065876511106
0.9997085216359133
0.9997105214948503
0.999712585105491
0.999714710209003
0.9997168944070155
0.9997191351586932
0.9997214297780861
0.9997237754318682
0.9997261691375189
0.9997286077620569
0.9997310880213713
0.999733606480248
0.999736159553139
0.9997387435057542
0.9997413544575183
0.9997439883849639
0.9997466411260971
0.9997493083857916
0.9997519857422374
0.9997546686544908
0.9997573524711401
0.9997600324401105
0.9997627037196262
0.9997653613903189
0.9997680004684918
0.9997706159205166
0.9997732026783426
0.9997757556560855
0.9997782697676526
0.9997807399453473
0.9997831611593947
0.9997855284383089
0.9997878368900257
0.9997900817236927
0.9997922582720307
0.9997943620141416
0.9997963885986524
0.9997983338670601
0.9998001938771559
0.9998019649263878
0.9998036435750289
0.9998052266690095
0.9998067113622826
0.9998080951385923
0.9998093758325212
0.9998105516496999
0.9998116211860884
0.9998125834462318
0.9998134378604351
0.9998141843008101
0.999814823096174
0.9998153550458148
0.9998157814321639
0.9998161040324528
0.9998163251294722
0.9998164475215744
0.9998164745321306
0.9998164100186466
0.9998162583818273
0.9998160245748585
0.9998157141132311
0.9998153330853936
0.9998148881645269
0.9998143866216568
0.9998138363401641
0.9998132458312172
0.9998126242497065
0.9998119814102675
0.9998113278019388
0.9998106745885349
0.9998100335901428
0.9998094172500368
0.9998088386295672
0.9998083111323408
0.9998078481316142
0.9998074623836267
0.9998071677303195
0.9998069741660021
0.9998069028480026
0.9998069681722667
0
0
0.999690738553015
0.9996906944755375
0.9996905452090072
0.9996903053732965
0.9996899884480613
0.9996896093576113
0.9996891825296021
0.9996887204356635
0.99968823566182
0.9996877401381804
0.9996872449551376
0.9996867603130848
0.9996862955242208
0.9996858589949182
0.9996854582600709
0.9996851000351588
0.9996847902729423
0.999684534221302
0.9996843364821604
0.9996842010689124
0.999684131460825
0.9996841306538611
0.9996842012076701
0.9996843452886426
0.999684564708996
0.9996848609620208
0.9996852352536195
0.9996856885303615
0.9996862215042309
0.9996868346743197
0.9996875283456497
0.9996883026453753
0.999689157536543
0.9996900928296402
0.9996911081921002
0.9996922031559791
0.9996933771239471
0.9996946293737958
0.999695959061597
0.9996973652236832
0.9996988467775803
0.9997004025220503
0.9997020311363548
0.9997037311788909
0.9997055010852895
0.9997073391661309
0.9997092436043494
0.999711212452468
0.9997132436297324
0.9997153349192761
0.99971748396538
0.9997196882709398
0.9997219451952103
0.9997242519519249
0.9997266056078538
0.999729003081893
0.9997314411447408
0.9997339164192441
0.9997364253814671
0.9997389643625552
0.999741529551438
0.9997441169984365
0.9997467226198119
0.999749342203305
0.9997519714146975
0.9997546058054348
0.9997572408213206
0.99975987181232
0.9997624940434628
0.9997651027068652
0.9997676929348503
0.9997702598141665
0.9997727984012674
0.9997753037386314
0.9997777708720692
0.9997801948689717
0.9997825708374352
0.9997848939461851
0.9997871594452272
0.999789362687119
0.999791499148776
0.9997935644536879
0.9997955543944437
0.9997974649554245
0.9997992923355516
0.9998010329709456
0.9998026835573711
0.9998042410723214
0.9998057027966204
0.9998070663354067
0.9998083296383778
0.9998094910191772
0.9998105491738309
0.9998115031981313
0.9998123526039094
0.99981309733413
0.999813737776794
0.9998142747776269
0.9998147096515841
0.9998150441932172
0.9998152806859836
0.9998154219105907
0.9998154711525337
0.9998154322089496
0.9998153093949955
0.9998151075498943
0.9998148320428547
0.9998144887789701
0.9998140842051797
0.999813625316196
0.9998131196602938
0.9998125753444582
0.9998120010375994
0.9998114059693372
0.9998107999242553
0.9998101932286112
0.9998095967190512
0.9998090216593181
0.9998084796694661
0.99980798260729
0.999807542391714
0.9998071702482497
0.9998068786440439
0.9998066798932282
0.9998065873322406
0.9998066140428411
0
0
0.9996912637540799
0.9996911504632865
0.9996909562776816
0.9996906895588514
0.9996903610345715
0.99968998302632
0.9996895666092857
0.9996891228662372
0.9996886626459589
0.9996881961555767
0.999687733080151
0.9996872824752924
0.9996868526830517
0.9996864513143857
0.9996860852673212
0.9996857607493571
0.9996854833103982
0.9996852578837159
0.9996850888300447
0.999684979981895
0.9996849346870632
0.9996849558505292
0.9996850459739969
0.9996852071927208
0.9996854413093927
0.9996857498250662
0.9996861339670952
0.9996865947141921
0.9996871328186835
0.9996877488261405
0.9996884430924946
0.999689215798841
0.9996900669640577
0.9996909964554368
0.999692003997461
0.9996930891789135
0.9996942514584458
0.9996954901687828
0.9996968045196798
0.9996981935997988
0.9996996563776097
0.9997011917014711
0.9997027982989871
0.9997044747757868
0.99970621961381
0.9997080311692368
0.9997099076701382
0.9997118472139818
0.9997138477650449
0.9997159071518783
0.9997180230648635
0.9997201930539896
0.9997224145268967
0.999724684747295
0.9997270008338153
0.9997293597593744
0.9997317583511168
0.9997341932910091
0.9997366611171364
0.9997391582257731
0.9997416808742662
0.9997442251848018
0.9997467871490782
0.9997493626339482
0.9997519473880461
0.999754537049446
0.9997571271543619
0.9997597131469185
0.9997622903899864
0.9997648541771056
0.9997673997454698
0.9997699222899717
0.9997724169782766
0.9997748789669009
0.9997773034182436
0.9997796855185237
0.9997820204965622
0.9997843036433357
0.9997865303322181
0.9997886960398228
0.9997907963673427
0.9997928270622827
0.9997947840404644
0.9997966634081875
0.9997984614844108
0.9998001748228296
0.999801800233714
0.9998033348053641
0.9998047759250612
0.9998061212993744
0.9998073689737055
0.9998085173509401
0.9998095652091212
0.9998105117180185
0.9998113564545459
0.9998120994169315
0.9998127410376236
0.999813282194881
0.9998137242230681
0.9998140689216544
0.9998143185629755
0.9998144758987986
0.9998145441657917
0.9998145270899587
0.999814428890163
0.999814254280784
0.999814008473599
0.9998136971788482
0.9998133266054581
0.9998129034601229
0.9998124349447802
0.9998119287518104
0.9998113930563435
0.9998108365032855
0.9998102681850628
0.9998096976075151
0.999809134651527
0.9998085895055839
0.9998080725480567
0.9998075941974134
0.9998071650043341
0.9998067953216948
0.9998064954613409
0.9998062765146967
0.9998061490569754
0.9998061215414173
0
0
0.9996918841851562
0.9996916939146745
0.9996914434658101
0.9996911383314424
0.9996907871566757
0.9996903985815977
0.9996899815996988
0.9996895456375421
0.9996890997205318
0.9996886525942584
0.9996882126667959
0.9996877878575899
0.9996873855455923
0.9996870125459159
0.9996866750955278
0.9996863788563576
0.9996861289340988
0.9996859299041598
0.9996857858416909
0.9996857003543219
0.9996856766159732
0.999685717400391
0.9996858251135411
0.9996860018243969
0.9996862492937294
0.9996865690007232
0.9996869621672635
0.9996874297799203
0.9996879726096067
0.9996885912290283
0.9996892860279629
0.9996900572265346
0.9996909048865541
0.9996918289210994
0.9996928291024272
0.9996939050683896
0.9996950563274446
0.9996962822624379
0.9996975821332328
0.9996989550783676
0.9997004001158035
0.9997019161429365
0.9997035019359358
0.9997051561485633
0.9997068773105355
0.999708663825577
0.9997105139692123
0.9997124258864454
0.9997143975893653
0.9997164269548099
0.9997185117221401
0.9997206494912335
0.9997228377207467
0.9997250737267543
0.9997273546818062
0.9997296776145016
0.9997320394096166
0.9997344368088811
0.9997368664124313
0.9997393246810271
0.9997418079390579
0.999744312378409
0.9997468340632124
0.9997493689355442
0.9997519128220791
0.9997544614417514
0.9997570104144292
0.9997595552706349
0.9997620914623017
0.9997646143745912
0.999767119338741
0.9997696016459539
0.9997720565622819
0.9997744793444927
0.9997768652568632
0.9997792095888549
0.9997815076736086
0.9997837549071888
0.9997859467684951
0.9997880788397521
0.9997901468274744
0.999792146583807
0.9997940741281187
0.9997959256687271
0.9997976976246296
0.9997993866471077
0.9998009896410686
0.9998025037859833
0.9998039265562951
0.9998052557411503
0.9998064894633383
0.999807626197298
0.999808664786099
0.9998096044572665
0.9998104448373881
0.9998111859653956
0.9998118283044871
0.9998123727526174
0.9998128206515623
0.9998131737945083
0.9998134344322136
0.9998136052777189
0.9998136895096763
0.9998136907742844
0.9998136131858922
0.999813461326237
0.9998132402423124
0.9998129554427178
0.9998126128923351
0.9998122190049902
0.9998117806336189
0.9998113050569075
0.9998107999613258
0.9998102734176687
0.999809733850448
0.9998091899933709
0.999808650830371
0.999808125530052
0.9998076233695655
0.9998071535855806
0.9998067253401293
0.9998063478209782
0.9998060297776875
0.9998057796549242
0.999805606109727
0.999805514858441
0
0
0.9996925753995003
0.999692303058881
0.9996919891549622
0.9996916377647627
0.9996912546444501
0.9996908461148681
0.9996904194787624
0.9996899822197719
0.9996895418028775
0.9996891056632007
0.9996886809780688
0.9996882745912476
0.999687892964186
0.9996875421248164
0.9996872276399081
0.999686954609224
0.9996867276703076
0.9996865510109905
0.9996864283883592
0.9996863631517904
0.9996863582679678
0.9996864163467593
0.9996865396670351
0.9996867302018039
0.9996869896421227
0.9996873194195294
0.9996877207267433
0.9996881945365841
0.9996887416190058
0.9996893625563105
0.9996900577565194
0.9996908274650337
0.9996916717745985
0.9996925906337373
0.9996935838536916
0.9996946511140411
0.9996957919670513
0.999697005840923
0.9996982920419983
0.9996996497560848
0.9997010780489574
0.999702575866197
0.9997041420324114
0.9997057752499998
0.999707474097497
0.9997092370276531
0.9997110623652811
0.9997129483050202
0.9997148929090418
0.9997168941048377
0.9997189496831174
0.9997210572959453
0.99972321445514
0.9997254185310561
0.999727666751775
0.9997299562028139
0.999732283827372
0.9997346464272218
0.9997370406642563
0.9997394630627923
0.99974191001264
0.9997443777730222
0.9997468624773524
0.9997493601389468
0.9997518666576652
0.9997543778275475
0.9997568893454362
0.9997593968206252
0.9997618957855283
0.9997643817073847
0.9997668500009756
0.9997692960423669
0.9997717151836241
0.9997741027684955
0.9997764541490008
0.9997787647028947
0.9997810298519245
0.9997832450808289
0.9997854059569882
0.9997875081506373
0.9997895474555452
0.9997915198100479
0.9997934213183279
0.9997952482718043
0.9997969971705171
0.9997986647443611
0.9998002479740392
0.9998017441115872
0.9998031507003419
0.9998044655941953
0.9998056869760239
0.9998068133751334
0.9998078436836263
0.9998087771715491
0.9998096135007429
0.9998103527372767
0.9998109953624172
0.9998115422820367
0.9998119948344419
0.9998123547965548
0.999812624388446
0.9998128062761795
0.9998129035729779
0.9998129198386532
0.9998128590773178
0.9998127257332567
0.9998125246849182
0.9998122612368002
0.999811941109003
0.9998115704239889
0.9998111556901081
0.9998107037811347
0.9998102219105999
0.9998097175991917
0.9998091986350186
0.9998086730255243
0.9998081489342749
0.999807634601128
0.9998071382726083
0.9998066681240783
0.999806232098067
0.9998058379210004
0.9998054929897149
0.9998052037927543
0.9998049765013663
0.9998048154082916
0
0
0.999693315387194
0.9996929584115882
0.9996925768623741
0.9996921734043077
0.99969175144435
0.9996913157798369
0.9996908719387861
0.9996904257756468
0.999689983424507
0.9996895510502235
0.999689134693376
0.9996887402091098
0.999688373183506
0.9996880388784511
0.999687742201575
0.9996874876889259
0.9996872794981987
0.9996871214120647
0.9996870168482783
0.9996869688741762
0.9996869802240852
0.9996870533185286
0.9996871902841395
0.9996873929735959
0.9996876629849819
0.9996880016802716
0.9996884102025888
0.9996888894921474
0.9996894403006968
0.9996900632045078
0.9996907586158116
0.9996915267928033
0.9996923678481793
0.9996932817563529
0.9996942683593515
0.9996953273715594
0.9996964583833189
0.9996976608635648
0.9996989341615112
0.9997002775075645
0.9997016900134843
0.9997031706719623
0.9997047183556391
0.9997063318157262
0.9997080096802455
0.9997097504520549
0.9997115525066634
0.999713414089999
0.9997153333161337
0.999717308165115
0.9997193364809136
0.999721415969623
0.9997235441979236
0.9997257185919362
0.999727936436475
0.9997301948748242
0.9997324909090374
0.999734821400879
0.9997371830734093
0.9997395725133155
0.9997419861739926
0.9997444203794661
0.9997468713291552
0.9997493351035538
0.9997518076708304
0.9997542848944049
0.9997567625414976
0.9997592362926921
0.9997617017525003
0.9997641544609542
0.9997665899061986
0.9997690035380928
0.99977139078278
0.9997737470582114
0.9997760677905693
0.999778348431557
0.9997805844764737
0.9997827714830266
0.9997849050907845
0.99978698104119
0.999788995198029
0.9997909435682493
0.9997928223230084
0.9997946278188314
0.9997963566187416
0.9997980055132248
0.999799571540899
0.9998010520087228
0.9998024445116227
0.9998037469513683
0.9998049575545789
0.999806074889694
0.9998070978828051
0.9998080258321946
0.9998088584214918
0.9998095957313101
0.9998102382493063
0.9998107868785362
0.9998112429440796
0.999811608197825
0.9998118848214052
0.9998120754271861
0.9998121830573098
0.9998122111806771
0.9998121636878512
0.9998120448837206
0.9998118594778281
0.9998116125720962
0.9998113096457363
0.9998109565368524
0.9998105594202178
0.9998101247805251
0.999809659380498
0.9998091702224501
0.999808664501455
0.9998081495504881
0.9998076327780808
0.9998071215911429
0.9998066233032138
0.9998061450692931
0.9998056937622886
0.999805275801
0.9998048971384025
0.9998045629062072
0.9998042770748969
0.9998040426309207
0
0
0.9996940849456046
0.999693642893021
0.9996931913867314
0.9996927318484313
0.9996922661645656
0.9996917977616478
0.9996913306335822
0.9996908693542502
0.9996904188181789
0.9996899840339132
0.9996895700254326
0.9996891817274355
0.9996888238993806
0.9996885010752763
0.9996882175251789
0.9996879772293406
0.9996877838650796
0.9996876408029536
0.9996875511093131
0.9996875175539168
0.9996875426210754
0.9996876285231058
0.9996877772150167
0.9996879904097997
0.9996882695936566
0.9996886160408324
0.9996890308276418
0.9996895148455814
0.9996900688132793
0.9996906932873043
0.9996913886716952
0.9996921552263063
0.9996929930738928
0.9996939022060758
0.9996948824881459
0.9996959336628753
0.9996970553533094
0.9996982470647182
0.9996995081856963
0.9997008379885884
0.9997022356292375
0.9997037001462261
0.9997052304596131
0.9997068253693373
0.9997084835532752
0.9997102035651356
0.9997119838321676
0.9997138226528565
0.9997157181945946
0.9997176684914835
0.9997196714422578
0.9997217248084811
0.999723826212999
0.9997259731388021
0.9997281629282745
0.9997303927829717
0.9997326597639132
0.9997349607925173
0.9997372926521629
0.9997396519904995
0.9997420353224872
0.9997444390342785
0.9997468593879192
0.9997492925269704
0.9997517344830259
0.999754181183208
0.999756628458614
0.9997590720537848
0.9997615076371503
0.9997639308125111
0.999766337131503
0.9997687221070765
0.9997710812279336
0.9997734099739236
0.9997757038323309
0.9997779583150327
0.9997801689764415
0.9997823314321874
0.9997844413784345
0.9997864946117674
0.9997884870495242
0.9997904147504793
0.9997922739357549
0.9997940610098274
0.9997957725815037
0.9997974054847126
0.9997989567989843
0.999800423869443
0.9998018043261868
0.9998030961028804
0.9998042974544258
0.9998054069735475
0.9998064236061678
0.9998073466654109
0.9998081758441332
0.999808911225825
0.999809553293815
0.9998101029386254
0.9998105614634354
0.9998109305875204
0.9998112124476363
0.9998114095972168
0.9998115250033704
0.9998115620415163
0.9998115244876307
0.9998114165078945
0.9998112426456526
0.9998110078053715
0.9998107172333786
0.9998103764949484
0.9998099914473194
0.9998095682078849
0.9998091131169392
0.9998086326944386
0.9998081335895393
0.9998076225210781
0.9998071062103208
0.9998065913087057
0.9998060843045605
0.9998055914246916
0.9998051185442772
0.9998046710216204
0.9998042535116266
0.9998038699529538
0.9998035227777877
0.9998032137930859
0
0
0.9996948676127796
0.9996943412724242
0.9996938188145329
0.9996933007682282
0.9996927879338932
0.9996922825370296
0.9996917873931269
0.9996913059673989
0.9996908420487568
0.999690399645654
0.9996899828592187
0.99968959577386
0.9996892423844653
0.9996889265405212
0.9996886519018995
0.9996884219101826
0.9996882397707547
0.9996881084430657
0.9996880306376248
0.9996880088183032
0.9996880452082912
0.9996881417986835
0.9996883003587059
0.9996885224469452
0.9996888094228895
0.99968916245845
0.9996895825490186
0.9996900705239368
0.9996906270560901
0.9996912526706321
0.9996919477526603
0.9996927125539367
0.9996935471985263
0.9996944516875026
0.9996954259026387
0.9996964696092497
0.9996975824581346
0.9996987639867947
0.9997000136198941
0.9997013306691391
0.9997027143325472
0.9997041636932941
0.9997056777181007
0.9997072552553508
0.9997088950329027
0.9997105956557818
0.9997123556037143
0.9997141732286846
0.9997160467524835
0.9997179742644132
0.9997199537191208
0.9997219829347244
0.9997240595911948
0.9997261812291617
0.9997283452490928
0.9997305489110219
0.99973278933477
0.9997350635008185
0.9997373682517998
0.9997397002947288
0.9997420562039612
0.999744432424987
0.9997468252790325
0.9997492309685843
0.9997516455837953
0.9997540651098722
0.9997564854354031
0.9997589023617083
0.999761311613165
0.9997637088485711
0.9997660896734886
0.9997684496536096
0.9997707843290785
0.9997730892297835
0.9997753598915411
0.999777591873165
0.9997797807743185
0.9997819222541187
0.999784012050383
0.9997860459994509
0.9997880200564528
0.9997899303159408
0.9997917730327393
0.9997935446428929
0.9997952417845757
0.9997968613188044
0.9997984003498174
0.999799856244951
0.9998012266538644
0.999802509526939
0.9998037031327108
0.99980480607415
0.9998058173036677
0.9998067361366623
0.9998075622634984
0.9998082957597471
0.9998089370945983
0.9998094871372833
0.9998099471614438
0.9998103188472927
0.9998106042815236
0.999810805954812
0.9998109267568709
0.9998109699688896
0.9998109392533041
0.9998108386406765
0.9998106725135882
0.999810445587247
0.9998101628866046
0.9998098297195579
0.9998094516459295
0.9998090344416619
0.9998085840576111
0.9998081065722454
0.9998076081380809
0.9998070949207782
0.999806573028461
0.9998060484353459
0.9998055268961454
0.999805013839367
0.9998045142515622
0.9998040325815104
0.999803572464249
0.9998031367900431
0.9998027268963386
0.9998023437040539
0
0
0.9996956491522584
0.9996950400797878
0.9996944466770021
0.9996938688518296
0.9996933065530045
0.9996927610709264
0.9996922342829713
0.9996917286860907
0.9996912471363464
0.9996907927655766
0.9996903688410945
0.9996899786790517
0.9996896255720277
0.9996893127297618
0.9996890432357163
0.9996888200164221
0.9996886458197273
0.9996885232013264
0.999688454517836
0.9996884419249067
0.9996884873790247
0.9996885926421568
0.9996887592882389
0.9996889887109178
0.9996892821318681
0.9996896406093748
0.9996900650467067
0.9996905562001648
0.9996911146864862
0.999691740989607
0.9996924354665722
0.9996931983526827
0.9996940297657283
0.999694929709442
0.9996958980760764
0.9996969346482655
0.9996980391000903
0.9996992109975338
0.9997004497982567
0.9997017548508887
0.9997031253937743
0.9997045605533641
0.9997060593422035
0.9997076206567042
0.9997092432746525
0.9997109258526383
0.9997126669233544
0.9997144648929578
0.9997163180384265
0.9997182245051143
0.9997201823044285
0.9997221893118271
0.9997242432650706
0.999726341762908
0.9997284822641391
0.9997306620872252
0.9997328784103929
0.999735128272393
0.9997374085738621
0.9997397160794409
0.9997420474205935
0.9997443990992803
0.9997467674924199
0.9997491488572827
0.9997515393377541
0.9997539349715902
0.9997563316986049
0.9997587253698915
0.9997611117580161
0.9997634865682608
0.9997658454508472
0.9997681840142026
0.9997704978391815
0.9997727824942769
0.9997750335517345
0.999777246604565
0.999779417284352
0.9997815412798352
0.999783614356136
0.9997856323745815
0.9997875913129816
0.9997894872862781
0.9997913165674164
0.9997930756083209
0.999794761060818
0.9997963697973662
0.9997978989314277
0.9997993458373152
0.9998007081693594
0.9998019838802072
0.9998031712381017
0.999804268842953
0.9998052756410564
0.999806190938268
0.9998070144115151
0.9998077461184501
0.9998083865051562
0.9998089364117089
0.9998093970755385
0.9998097701323998
0.9998100576149066
0.9998102619484478
0.9998103859444464
0.9998104327907665
0.9998104060392232
0.9998103095899564
0.9998101476725986
0.9998099248239312
0.9998096458618957
0.9998093158555621
0.9998089400908029
0.9998085240312179
0.9998080732739965
0.9998075934999715
0.9998070904174108
0.9998065696997066
0.9998060369150611
0.9998054974469399
0.9998049564071646
0.9998044185420938
0.9998038880988047
0.9998033687470809
0.9998028633275542
0.9998023739124968
0.999801901018104
0.9998014449520302
0
0
0.9996964171764249
0.9996957274229158
0.9996950637920624
0.9996944257355133
0.9996938125577395
0.9996932248355859