# vtk DataFile Version 2.0
2D-ADE data file 
ASCII
DATASET RECTILINEAR_GRID
DIMENSIONS 128 128 1 
X_COORDINATES 128 int
0 1 2 3 4 5 6 7 8 9 10 11 12 13 14 15 16 17 18 19 20 21 22 23 24 25 26 27 28 29 30 31 32 33 34 35 36 37 38 39 40 41 42 43 44 45 46 47 48 49 50 51 52 53 54 55 56 57 58 59 60 61 62 63 64 65 66 67 68 69 70 71 72 73 74 75 76 77 78 79 80 81 82 83 84 85 86 87 88 89 90 91 92 93 94 95 96 97 98 99 100 101 102 103 104 105 106 107 108 109 110 111 112 113 114 115 116 117 118 119 120 121 122 123 124 125 126 127 
Y_COORDINATES 128 int
0 1 2 3 4 5 6 7 8 9 10 11 12 13 14 15 16 17 18 19 20 21 22 23 24 25 26 27 28 29 30 31 32 33 34 35 36 37 38 39 40 41 42 43 44 45 46 47 48 49 50 51 52 53 54 55 56 57 58 59 60 61 62 63 64 65 66 67 68 69 70 71 72 73 74 75 76 77 78 79 80 81 82 83 84 85 86 87 88 89 90 91 92 93 94 95 96 97 98 99 100 101 102 103 104 105 106 107 108 109 110 111 112 113 114 115 116 117 118 119 120 121 122 123 124 125 126 127 
Z_COORDINATES 1 int
0
POINT_DATA 16384
SCALARS density double
LOOKUP_TABLE default
0
0
0
0
0
0
0
0
0
0
0
0
0
0
0
0
0
0
0
0
0
0
0
0
0
0
0
0
0
0
0
0
0
0
0
0
0
0
0
0
0
0
0
0
0
0
0
0
0
0
0
0
0
0
0
0
0
0
0
0
0
0
0
0
0
0
0
0
0
0
0
0
0
0
0
0
0
0
0
0
0
0
0
0
0
0
0
0
0
0
0
0
0
0
0
0
0
0
0
0
0
0
0
0
0
0
0
0
0
0
0
0
0
0
0
0
0
0
0
0
0
0
0
0
0
0
0
0
0
0.9996799101292014
0.9996802537920747
0.9996803369932994
0.999680088455894
0.9996796573037201
0.9996791097874749
0.9996784742774493
0.9996777775157195
0.9996770452756719
0.9996762988635494
0.9996755558605922
0.9996748314444058
0.9996741388993823
0.9996734898536217
0.999672894516228
0.9996723618918567
0.9996718999484464
0.9996715157527755
0.9996712155854076
0.9996710050386677
0.9996708890996447
0.9996708722204449
0.9996709583775685
0.9996711511218568
0.9996714536201626
0.9996718686897441
0.9996723988262572
0.999673046226097
0.9996738128038005
0.9996747002051298
0.9996757098164156
0.9996768427707106
0.9996780999512244
0.999679481992504
0.9996809892797737
0.9996826219468085
0.9996843798726887
0.9996862626777554
0.9996882697190554
0.9996904000855303
0.9996926525931945
0.9996950257805162
0.9996975179041833
0.9997001269354362
0.9997028505571066
0.9997056861614939
0.9997086308491931
0.9997116814289583
0.999714834418682
0.9997180860475413
0.9997214322593602
0.9997248687172057
0.99972839080924
0.9997319936558245
0.9997356721178663
0.99973942080639
0.9997432340933032
0.9997471061233184
0.9997510308269917
0.9997550019348233
0.9997590129923746
0.9997630573763335
0.9997671283114755
0.9997712188884539
0.9997753220823551
0.9997794307719504
0.9997835377595831
0.9997876357916136
0.9997917175793671
0.9997957758205035
0.9997998032207511
0.9998037925159305
0.9998077364942072
0.9998116280184995
0.9998154600489789
0.9998192256655942
0.9998229180905571
0.9998265307107187
0.9998300570997734
0.9998334910402235
0.9998368265450489
0.9998400578790063
0.999843179579503
0.999846186476992
0.9998490737148167
0.9998518367684682
0.9998544714641914
0.9998569739969069
0.999859340947405
0.9998615692987834
0.9998636564521164
0.9998656002413333
0.9998673989473358
0.9998690513113626
0.9998705565476576
0.9998719143555169
0.9998731249308153
0.9998741889771471
0.9998751077167694
0.9998758829015595
0.9998765168242687
0.999877012330398
0.9998773728310881
0.9998776023175048
0.9998777053772608
0.9998776872135651
0.9998775536679008
0.999877311247255
0.9998769671571328
0.9998765293419737
0.9998760065351003
0.9998754083207926
0.9998747452108836
0.9998740287399047
0.9998732715901965
0.9998724877610983
0.9998716927560427
0.9998709037627781
0.9998701400842959
0.9998694243474576
0.9998687830654092
0.9998682430119176
0.9998678314570476
0.9998676118294867
0.9998677257691968
0.9998680932607995
0
0
0.999680252352403
0.9996803729321931
0.999680345850581
0.9996801358422672
0.9996797821541633
0.9996793091255702
0.9996787512395143
0.9996781355666718
0.9996774840419699
0.9996768155498788
0.9996761468934472
0.9996754927746746
0.9996748660765392
0.9996742781715059
0.9996737391519197
0.9996732579943765
0.9996728427004113
0.9996725004182087
0.9996722375461065
0.9996720598203689
0.9996719723901593
0.9996719798815428
0.9996720864518713
0.9996722958357086
0.9996726113832948
0.9996730360924205
0.9996735726344498
0.99967422337518
0.9996749903911452
0.9996758754819319
0.9996768801790308
0.9996780057517072
0.9996792532103438
0.9996806233076696
0.9996821165382631
0.9996837331366881
0.9996854730745829
0.9996873360570122
0.9996893215183537
0.9996914286179706
0.9996936562358967
0.9996960029687487
0.9996984671260377
0.9997010467270534
0.9997037394984619
0.9997065428727415
0.9997094539875636
0.9997124696862069
0.9997155865190757
0.9997188007463765
0.999722108341998
0.9997255049986122
0.9997289861340176
0.999732546898719
0.9997361821847368
0.9997398866356222
0.9997436546576532
0.9997474804321732
0.9997513579290226
0.9997552809210251
0.9997592429994643
0.9997632375904986
0.9997672579724473
0.9997712972938907
0.9997753485925127
0.9997794048146181
0.9997834588352624
0.9997875034789173
0.9997915315406055
0.9997955358074381
0.9997995090804775
0.999803444196865
0.9998073340521357
0.9998111716226573
0.9998149499881207
0.9998186623540143
0.9998223020740171
0.9998258626722374
0.999829337865237
0.99983272158377
0.9998360079941722
0.9998391915193418
0.9998422668592447
0.9998452290108897
0.9998480732877139
0.9998507953383314
0.9998533911645909
0.9998558571389071
0.9998581900208264
0.999860386972806
0.9998624455751823
0.9998643638403348
0.9998661402260486
0.9998677736481111
0.9998692634921822
0.9998706096250219
0.9998718124051644
0.9998728726931757
0.9998737918616575
0.999874571805205
0.9998752149505662
0.9998757242673014
0.9998761032793047
0.9998763560776015
0.9998764873349347
0.9998765023227253
0.9998764069311367
0.9998762076931106
0.9998759118134625
0.9998755272043166
0.9998750625284354
0.9998745272524843
0.9998739317133447
0.9998732871999957
0.9998726060515617
0.9998719017752437
0.9998711892237536
0.9998704848399612
0.9998698068614394
0.9998691752056348
0.999868612297131
0.9998681449369994
0.9998678062647371
0.9998676180576148
0.9998676144312686
0.999867755018438
0
0
0.9996806473083857
0.999680637144851
0.9996805351623559
0.9996803345818336
0.9996800104587603
0.9996795820588384
0.9996790803163804
0.9996785259166043
0.9996779372232634
0.9996773315423246
0.9996767244782218
0.9996761297339714
0.9996755595132496
0.9996750247523245
0.9996745352548012
0.9996740998138492
0.9996737263328391
0.9996734219283049
0.9996731930171376
0.9996730453920226
0.9996729842870234
0.9996730144340702
0.999673140111262
0.9996733651838926
0.9996736931389779
0.999674127113966
0.9996746699202428
0.9996753240619978
0.9996760917509823
0.9996769749176474
0.9996779752191188
0.9996790940444463
0.9996803325175362
0.9996816914981352
0.9996831715812368
0.9996847730952305
0.9996864960991045
0.9996883403789865
0.9996903054442838
0.9996923905236593
0.999694594561067
0.9996969162120405
0.9996993538404113
0.9997019055156181
0.9997045690107423
0.9997073418013921
0.9997102210655354
0.9997132036843678
0.9997162862442845
0.9997194650400073
0.9997227360789046
0.9997260950865335
0.9997295375134064
0.9997330585429917
0.9997366531009273
0.9997403158654342
0.9997440412788938
0.9997478235605565
0.9997516567203332
0.9997555345736233
0.9997594507571186
0.9997633987455324
0.9997673718691823
0.9997713633323703
0.999775366232484
0.9997793735797578
0.9997833783176214
0.9997873733435643
0.9997913515304424
0.9997953057481658
0.9997992288856813
0.9998031138731902
0.9998069537045253
0.9998107414596151
0.9998144703269667
0.9998181336260988
0.9998217248298503
0.9998252375864993
0.9998286657416244
0.9998320033596406
0.9998352447449442
0.9998383844626033
0.9998414173585316
0.9998443385790889
0.9998471435900507
0.9998498281948935
0.9998523885523557
0.9998548211932258
0.9998571230363301
0.9998592914036918
0.9998613240348491
0.9998632191003247
0.9998649752142656
0.9998665914462724
0.9998680673324647
0.9998694028858578
0.999870598606129
0.9998716554889022
0.9998725750346935
0.9998733592577035
0.9998740106946719
0.999874532414062
0.9998749280258787
0.9998752016924842
0.9998753581408405
0.9998754026766737
0.9998753412011598
0.9998751802308119
0.9998749269214258
0.9998745890970887
0.9998741752853023
0.9998736947591281
0.9998731575883487
0.9998725747035081
0.9998719579743567
0.9998713202859811
0.9998706756224601
0.9998700392380125
0.9998694279836063
0.9998688600185202
0.9998683540786243
0.9998679306045741
0.9998676194462628
0.9998674378771664
0.999867358390774
0.9998673715991515
0
0
0.9996810561251962
0.9996810163422666
0.9996808818841193
0.9996806487694807
0.9996803233088517
0.9996799215026996
0.9996794565117303
0.9996789443844033
0.9996784024351204
0.999677845942389
0.9996772885571229
0.999676742794434
0.9996762200865319
0.9996757307717964
0.9996752842024285
0.99967488885757
0.9996745524317124
0.9996742819100106
0.9996740836383352
0.9996739633862088
0.9996739264018607
0.9996739774600681
0.9996741209035582
0.999674360678477
0.999674700364396
0.9996751431993405
0.999675692100305
0.9996763496797115
0.9996771182582319
0.999677999874393
0.9996789962913515
0.9996801090012218
0.9996813392273141
0.9996826879246257
0.9996841557789108
0.9996857432046273
0.9996874503420541
0.9996892770538307
0.9996912229211871
0.9996932872400595
0.9996954690173293
0.9996977669673527
0.9997001795089572
0.9997027047630559
0.9997053405510128
0.9997080843938677
0.9997109335125287
0.9997138848290026
0.9997169349687355
0.9997200802641106
0.9997233167591414
0.9997266402153762
0.9997300461190322
0.9997335296893513
0.9997370858881638
0.9997407094306454
0.9997443947972252
0.9997481362466196
0.9997519278299324
0.9997557634057848
0.9997596366564073
0.9997635411046425
0.9997674701317882
0.9997714169962204
0.9997753748527249
0.999779336772469
0.9997832957635429
0.9997872447919929
0.9997911768032856
0.9997950847441174
0.9997989615845037
0.9998028003400755
0.9998065940945033
0.9998103360219878
0.9998140194097304
0.9998176376803274
0.9998211844140042
0.9998246533706269
0.9998280385114187
0.9998313340203182
0.9998345343249037
0.9998376341168309
0.999840628371711
0.9998435123683805
0.9998462817074975
0.9998489323294176
0.9998514605313041
0.9998538629834257
0.9998561367446194
0.9998582792768771
0.9998602884590554
0.9998621625996937
0.9998639004489527
0.9998655012096965
0.9998669645477551
0.9998682906014271
0.9998694799902993
0.9998705338234881
0.9998714537074286
0.9998722417533621
0.9998729005847149
0.9998734333445786
0.9998738437035493
0.9998741358682213
0.9998743145906668
0.9998743851792979
0.9998743535115537
0.9998742260489131
0.9998740098547523
0.9998737126156448
0.9998733426669785
0.9998729090236497
0.9998724214151538
0.9998718903232036
0.9998713270294137
0.9998707436836104
0.9998701533621048
0.9998695700031316
0.9998690084017782
0.9998684846276578
0.9998680163567477
0.9998676195008069
0.9998673066273273
0.9998670926793245
0.9998669837630493
0.9998669745618034
0
0
0.999681572987392
0.9996814867044252
0.9996813085065782
0.9996810446403684
0.9996807120075826
0.9996803174028848
0.9996798705870337
0.9996793861220558
0.9996788777433483
0.9996783581215257
0.9996778394414982
0.999677333100033
0.9996768495551127
0.9996763983983463
0.9996759884393264
0.9996756277537383
0.9996753237353078
0.9996750831535033
0.9996749122079627
0.9996748165769516
0.9996748014609252
0.9996748716214505
0.9996750314153687
0.9996752848242763
0.9996756354796053
0.9996760866836074
0.9996766414265524
0.9996773024004602
0.9996780720096962
0.9996789523787625
0.9996799453576147
0.9996810525248189
0.9996822751888729
0.9996836143879837
0.9996850708886016
0.9996866451829794
0.9996883374860248
0.9996901477316864
0.9996920755691046
0.999694120358741
0.9996962811686771
0.9996985567712642
0.9997009456402806
0.9997034459487427
0.9997060555674937
0.9997087720646765
0.9997115927061909
0.9997145144572036
0.9997175339847755
0.9997206476616555
0.999723851571271
0.9997271415139324
0.9997305130142673
0.9997339613298689
0.9997374814611578
0.9997410681624198
0.9997447159539992
0.9997484191356009
0.9997521718006599
0.9997559678517218
0.9997598010167813
0.9997636648665157
0.9997675528323523
0.9997714582252961
0.9997753742554575
0.9997792940522001
0.999783210684846
0.9997871171838555
0.9997910065624148
0.9997948718383542
0.9997987060563238
0.9998025023101513
0.9998062537653115
0.9998099536814264
0.9998135954347299
0.9998171725404225
0.9998206786748401
0.9998241076973711
0.9998274536720467
0.9998307108887411
0.9998338738839094
0.9998369374607992
0.9998398967090756
0.999842747023798
0.9998454841236905
0.9998481040686558
0.9998506032764849
0.9998529785387179
0.9998552270356253
0.9998573463502788
0.9998593344816928
0.9998611898570294
0.9998629113428705
0.9998644982555703
0.9998659503707203
0.9998672679317727
0.9998684516578845
0.9998695027510656
0.9998704229027353
0.9998712142998061
0.9998718796304458
0.9998724220896861
0.9998728453850739
0.9998731537425803
0.9998733519130214
0.9998734451792477
0.9998734393643952
0.999873340841513
0.9998731565448932
0.9998728939832665
0.9998725612548367
0.9998721670645305
0.9998717207445678
0.9998712322756719
0.9998707123000276
0.9998701721277603
0.9998696237763602
0.9998690799938903
0.9998685540603633
0.9998680594376631
0.9998676103144839
0.9998672213317473
0.999866902110569
0.9998666589918884
0.9998665093386924
0.9998664593664309
0
0
0.9996821882775035
0.9996820317781141
0.9996818023610075
0.9996815078049324
0.9996811564009097
0.9996807550427111
0.9996803146193338
0.9996798457299918
0.9996793589395915
0.9996788653681647
0.9996783757759191
0.9996779002180705
0.9996774481291484
0.9996770283398182
0.9996766490539032
0.9996763178649655
0.9996760417959174
0.9996758273368324
0.9996756804801162
0.9996756067551903
0.9996756112615395
0.9996756986987405
0.9996758733931189
0.9996761393210585
0.9996765001289856
0.9996769591501178
0.9996775194181283
0.9996781836779406
0.9996789543938841
0.9996798337554706
0.9996808236810446
0.9996819258195808
0.9996831415508981
0.9996844719845482
0.9996859179576426
0.9996874800318658
0.9996891584899094
0.9996909533315584
0.9996928642696358
0.9996948907260066
0.9996970318278241
0.9996992864041832
0.9997016529833295
0.9997041297905659
0.9997067147469693
0.9997094054690199
0.9997121992692364
0.9997150931578843
0.9997180838458124
0.9997211677484692
0.9997243409911205
0.9997275994152894
0.9997309385864235
0.9997343538027816
0.9997378401055294
0.9997413922900098
0.9997450049181643
0.9997486723320582
0.9997523886684654
0.9997561478744589
0.9997599437239497
0.9997637698351128
0.9997676196886345
0.9997714866467126
0.9997753639727411
0.9997792448516072
0.9997831224105261
0.9997869897403396
0.9997908399172089
0.9997946660246153
0.9997984611756074
0.9998022185352088
0.9998059313429165
0.9998095929352149
0.9998131967680259
0.999816736439031
0.9998202057097834
0.9998235985275428
0.9998269090467583
0.9998301316501353
0.9998332609692115
0.9998362919043798
0.9998392196442945
0.999842039684595
0.9998447478458987
0.9998473402909979
0.9998498135412162
0.9998521644918864
0.9998543904268988
0.9998564890323016
0.9998584584089228
0.9998602970840008
0.9998620040218211
0.9998635786333697
0.9998650207850078
0.9998663308062219
0.9998675094964745
0.9998685581312315
0.9998694784672307
0.999870272747091
0.9998709437033652
0.9998714945621557
0.9998719290464301
0.9998722513791788
0.9998724662865721
0.9998725790012684
0.9998725952660142
0.9998725213376315
0.9998723639914615
0.99987213052637
0.9998718287700601
0.9998714670834519
0.9998710543631478
0.9998706000442091
0.9998701141024843
0.999869607031987
0.9998690897819826
0.9998685737327474
0.9998680707401645
0.9998675927548394
0.9998671509022072
0.9998667560682752
0.9998664193236882
0.9998661475915169
0.9998659494657092
0.9998658330881312
0
0
0.9996828704061569
0.9996826380926136
0.9996823526744819
0.9996820183803654
0.9996816396357943
0.9996812241684235
0.9996807803694769
0.9996803163433058
0.999679841321827
0.9996793647521007
0.9996788957631652
0.9996784432126122
0.9996780155984292
0.9996776209513663
0.9996772668160034
0.99967696026387
0.9996767079044359
0.9996765159000913
0.9996763899876481
0.9996763355017348
0.9996763573973471
0.9996764602710082
0.9996766483802059
0.9996769256606797
0.9996772957413063
0.9996777619565473
0.9996783273564945
0.9996789947146164
0.999679766533355
0.9996806450477458
0.9996816322272649
0.9996827297761237
0.999683939132231
0.9996852614650529
0.9996866976725972
0.9996882483777436
0.9996899139241348
0.9996916943718348
0.9996935894929517
0.9996955987674051
0.9996977213790074
0.999699956212018
0.9997023018483093
0.9997047565652739
0.9997073183345774
0.99970998482186
0.9997127533874727
0.9997156210883004
0.9997185846807402
0.999721640624865
0.999724785089805
0.9997280139603568
0.9997313228448232
0.9997347070840832
0.9997381617618589
0.9997416817161715
0.9997452615519354
0.9997488956546592
0.9997525782051992
0.9997563031955154
0.9997600644453678
0.9997638556198932
0.9997676702479963
0.9997715017414853
0.999775343414881
0.9997791885058294
0.9997830301960395
0.999786861632678
0.999790675950136
0.9997944662921036
0.9997982258338655
0.9998019478047492
0.9998056255106441
0.9998092523565228
0.9998128218688825
0.9998163277180344
0.9998197637401703
0.9998231239591302
0.9998264026077964
0.9998295941490496
0.9998326932962125
0.9998356950329171
0.9998385946323262
0.9998413876756511
0.9998440700699034
0.999846638064824
0.9998490882689394
0.9998514176646962
0.9998536236226344
0.9998557039145616
0.9998576567256998
0.9998594806657856
0.9998611747791085
0.999862738553488
0.9998641719281885
0.9998654753007997
0.999866649533098
0.9998676959559367
0.9998686163732042
0.9998694130649184
0.9998700887895136
0.9998706467853973
0.9998710907718543
0.9998714249493702
0.9998716539994352
0.9998717830838815
0.9998718178437827
0.9998717643978652
0.9998716293402582
0.9998714197372262
0.9998711431226823
0.9998708074920877
0.9998704212921956
0.9998699934023467
0.9998695331101839
0.9998690500881277
0.9998685543375514
0.9998680560457277
0.9998675654673336
0.9998670929465518
0.9998666483864265
0.999866240343838
0.9998658775254614
0.9998655679276578
0.9998653162145159
0.9998651268732911
0
0
0.9996835982975889
0.9996832894772529
0.9996829434018318
0.9996825623964429
0.9996821506470479
0.9996817139922868
0.9996812584782285
0.9996807912367498
0.9996803200154389
0.9996798525724141
0.9996793967697114
0.9996789604090283
0.9996785510313434
0.9996781758625275
0.9996778417941082
0.9996775553592815
0.9996773227228618
0.9996771496859964
0.9996770416960433
0.9996770038581391
0.9996770409481343
0.9996771574259675
0.99967735744839
0.9996776448804334
0.999678023305346
0.9996784960328328
0.9996790661055114
0.9996797363035985
0.9996805091478925
0.9996813869011719
0.9996823715681556
0.9996834648942002
0.9996846683629086
0.9996859831928565
0.9996874103336268
0.9996889504613522
0.9996906039739534
0.9996923709862723
0.9996942513252671
0.999696244525443
0.9996983498246774
0.9997005661605841
0.9997028921675438
0.999705326174526
0.9997078662037995
0.999710509970631
0.9997132548840366
0.9997160980486595
0.9997190362678092
0.9997220660477171
0.9997251836030107
0.9997283848634322
0.999731665481797
0.9997350208431819
0.9997384460753198
0.9997419360601816
0.9997454854466975
0.9997490886645874
0.9997527399392353
0.9997564333075665
0.9997601626348642
0.999763921632456
0.9997677038762122
0.9997715028257805
0.9997753118444906
0.9997791242198498
0.9997829331845605
0.9997867319379806
0.9997905136679529
0.9997942715729251
0.999797998884288
0.9998016888888476
0.9998053349513649
0.9998089305370759
0.9998124692341274
0.9998159447758427
0.999819351062751
0.999822682184302
0.9998259324401925
0.9998290963612358
0.9998321687297029
0.999835144599063
0.9998380193130622
0.9998407885240714
0.9998434482106436
0.9998459946942199
0.9998484246549312
0.9998507351464443
0.9998529236098043
0.9998549878862327
0.9998569262288476
0.999858737313274
0.9998604202471266
0.9998619745783459
0.99986340030238
0.9998646978682184
0.9998658681832792
0.9998669126171664
0.9998678330043209
0.9998686316455859
0.9998693113087189
0.9998698752278736
0.9998703271020759
0.999870671092705
0.9998709118199693
0.9998710543583352
0.9998711042308059
0.9998710674018987
0.999870950269104
0.9998707596523106
0.9998705027802658
0.9998701872733421
0.9998698211225356
0.9998694126615413
0.9998689705228931
0.9998685035796939
0.9998680208925144
0.9998675316230379
0.9998670448074453
0.999866569173993
0.9998661132354085
0.9998656847034239
0.999865290027085
0.9998649353599988
0.9998646251100509
0.9998643617630804
0
0
0.9996843559628901
0.9996839691539977
0.9996835591498553
0.9996831277485754
0.999682678101318
0.9996822141302705
0.9996817407376447
0.9996812638322294
0.999680789626702
0.999680324676457
0.9996798757617636
0.9996794496371766
0.9996790529451511
0.9996786921626101
0.99967837353888
0.9996781030595949
0.9996778864324146
0.9996777290800328
0.9996776361377836
0.9996776124560391
0.9996776626054763
0.9996777908833809
0.9996780013201046
0.9996782976851737
0.9996786834926059
0.9996791620051392
0.9996797362372164
0.9996804089566701
0.9996811826851203
0.9996820596971416
0.9996830420183062
0.9996841314222307
0.9996853294267743
0.9996866372895603
0.9996880560029813
0.9996895862888747
0.999691228593028
0.9996929830796979
0.9996948496262956
0.9996968278184013
0.999698916945247
0.999701115995812
0.9997034236556387
0.9997058383044957
0.9997083580149732
0.9997109805520986
0.9997137033740456
0.9997165236339892
0.9997194381831536
0.9997224435750832
0.9997255360711599
0.9997287116473722
0.999731966002332
0.9997352945665328
0.9997386925128172
0.9997421547680372
0.9997456760258563
0.9997492507606581
0.9997528732425031
0.9997565375530886
0.9997602376026361
0.9997639671476586
0.9997677198095267
0.9997714890937713
0.9997752684100513
0.9997790510927057
0.9997828304218231
0.9997865996447496
0.9997903519979543
0.9997940807291876
0.9997977791198404
0.9998014405074374
0.999805058308187
0.9998086260395057
0.9998121373424429
0.999815586003937
0.9998189659788154
0.9998222714114718
0.9998254966571504
0.9998286363027469
0.9998316851870801
0.9998346384205397
0.9998374914040555
0.9998402398473202
0.9998428797861916
0.9998454075992257
0.9998478200232704
0.9998501141680713
0.9998522875298334
0.9998543380036964
0.9998562638950719
0.9998580639298175
0.999859737263202
0.9998612834876458
0.9998627026392064
0.9998639952027988
0.9998651621161373
0.9998662047723873
0.9998671250215291
0.9998679251704189
0.9998686079815492
0.9998691766704866
0.9998696349019673
0.9998699867846016
0.9998702368641171
0.999870390115035
0.9998704519306093
0.9998704281107373
0.9998703248474872
0.9998701487078218
0.9998699066128207
0.9998696058117904
0.999869253849674
0.9998688585283415
0.9998684278596003
0.9998679699962236
0.9998674931380224
0.9998670054490241
0.9998665149464065
0.9998660292335801
0.9998655553716884
0.9998650999343562
0.9998646683034221
0.999864264734662
0.9998638925428576
0.9998635536514924
0
0
0.9996851276872243
0.9996846622278401
0.9996841867788514
0.999683702526445
0.9996832111073961
0.999682715394498
0.9996822192755604
0.9996817273216781
0.9996812446096484
0.9996807766804964
0.9996803292726136
0.9996799082118308
0.9996795193393485
0.9996791684183287
0.9996788610727375
0.9996786027536152
0.9996783987135422
0.9996782539887079
0.9996781733892716
0.9996781614948894
0.9996782226529793
0.9996783609787595
0.9996785803563123
0.9996788844399054
0.9996792766550598
0.9996797601990384
0.9996803380405577
0.9996810129186102
0.9996817873403565
0.999682663578107
0.9996836436654598
0.9996847293926903
0.9996859223015129
0.999687223679357
0.9996886345532976
0.9996901556838036
0.9996917875584513
0.9996935303857636
0.9996953840893213
0.9996973483022895
0.9996994223624927
0.9997016053081684
0.9997038958745073
0.9997062924910861
0.9997087932802807
0.9997113960567405
0.9997140983279869
0.9997168972961873
0.9997197898611482
0.9997227726245523
0.9997258418954533
0.9997289936970475
0.9997322237746945
0.9997355276051931
0.999738900407277
0.9997423371533017
0.9997458325820828
0.9997493812128417
0.9997529773602024
0.9997566151501871
0.9997602885371495
0.9997639913215737
0.999767717168683
0.9997714596277747
0.9997752121522216
0.999778968120057
0.9997827208550679
0.9997864636483306
0.9997901897800974
0.999793892541971
0.9997975652592811
0.9998012013135851
0.9998047941652272
0.9998083373758633
0.9998118246308854
0.9998152497616677
0.9998186067675553
0.9998218898375225
0.9998250933714252
0.9998282120007744
0.9998312406089532
0.9998341743508151
0.9998370086715775
0.9998397393249583
0.9998423623904716
0.9998448742898287
0.9998472718023778
0.9998495520795154
0.9998517126580246
0.999853751472271
0.9998556668652172
0.9998574575982042
0.9998591228594548
0.9998606622712618
0.9998620758958259
0.9998633642397078
0.999864528256866
0.9998655693502493
0.9998664893719172
0.9998672906216496
0.9998679758440105
0.9998685482238178
0.9998690113799503
0.999869369357407
0.9998696266174962
0.9998697880259901
0.9998698588390298
0.9998698446864818
0.9998697515522947
0.9998695857512281
0.9998693539013791
0.9998690628917918
0.9998687198430709
0.99986833205834
0.9998679069658125
0.9998674520531371
0.9998669747753004
0.9998664824328154
0.9998659820746891
0.9998654803715443
0.9998649833336779
0.9998644962708396
0.9998640236103649
0.9998635685978066
0.9998631329848687
0.9998627180638986
0
0
0.9996858987067827
0.9996853554040733
0.9996848141646228
0.9996842754171379
0.9996837396917234
0.9996832090623502
0.9996826863464051
0.9996821750863375
0.9996816794344732
0.9996812039642891
0.9996807535102643
0.999680333094058
0.9996799478133931
0.9996796027612217
0.999679302974521
0.9996790533911781
0.9996788588165789
0.9996787239015237
0.9996786531270986
0.9996786507938549
0.9996787210144192
0.9996788677085475
0.9996790945995401
0.9996794052113216
0.9996798028657001
0.9996802906794731
0.9996808715611208
0.9996815482069474
0.9996823230965959
0.9996831984879349
0.9996841764113413
0.9996852586634639
0.9996864468005503
0.9996877421314689
0.9996891457105396
0.9996906583303243
0.9996922805145048
0.9996940125109992
0.9996958542854434
0.9996978055151805
0.9996998655838695
0.9997020335768426
0.9997043082773097
0.999706688163504
0.9997091714068567
0.9997117558712718
0.9997144391135567
0.9997172183850631
0.9997200906345685
0.9997230525124235
0.9997261003759819
0.9997292302963112
0.9997324380661773
0.9997357192092878
0.9997390689907668
0.9997424824288269
0.999745954307599
0.9997494791910719
0.9997530514380906
0.9997566652183509
0.9997603145293344
0.9997639932141156
0.9997676949799693
0.9997714134177164
0.9997751420217253
0.9997788742105037
0.9997826033477986
0.9997863227641313
0.9997900257786939
0.9997937057215247
0.9997973559558864
0.9998009699007769
0.9998045410534859
0.9998080630121231
0.9998115294980492
0.9998149343781184
0.9998182716866697
0.9998215356471817
0.99982472069352
0.9998278214907005
0.9998308329550927
0.9998337502739909
0.9998365689244783
0.9998392846915145
0.9998418936851697
0.9998443923569437
0.9998467775150955
0.9998490463389189
0.9998511963919027
0.9998532256337086
0.9998551324309138
0.9998569155664551
0.9998585742477258
0.9998601081132672
0.9998615172380134
0.99986280213703
0.9998639637677081
0.9998650035303555
0.9998659232671409
0.9998667252593257
0.9998674122227255
0.9998679873013127
0.999868454058877
0.9998688164686084
0.9998690789004657
0.9998692461061238
0.9998693232012377
0.9998693156447034
0.9998692292145328
0.9998690699797482
0.9998688442674383
0.9998685586242507
0.9998682197718061
0.999867834553841
0.9998674098713102
0.9998669526078356
0.9998664695479064
0.9998659672677128
0.9998654519980752
0.9998649295306391
0.9998644050406165
0.9998638828920238
0.9998633665035787
0.9998628583734172
0.999862359145789
0.9998618693514173
0
0
0.9996866559814408
0.9996860366387189
0.9996854300898587
0.999684836152685
0.9996842546166909
0.999683686773539
0.9996831345591259
0.9996826007146173
0.999682088543298
0.9996816017802702
0.9996811444916974
0.9996807209693636
0.9996803356319186
0.9996799929617541
0.9996796974478381
0.9996794535387734
0.9996792656089071
0.9996791379326595
0.9996790746643586
0.9996790798230047
0.9996791572807538
0.9996793107538013
0.9996795437948509
0.9996798597865739
0.9996802619355687
0.9996807532664507
0.9996813366158098
0.9996820146258946
0.9996827897379164
0.9996836641849578
0.9996846399844908
0.9996857189305643
0.9996869025857338
0.9996881922728393
0.9996895890667391
0.9996910937861245
0.999692706985545
0.9996944289477667
0.999696259676593
0.999698198890273
0.9997002460156027
0.9997024001828421
0.9997046602215294
0.999707024657298
0.9997094917097589
0.9997120592915278
0.9997147250084368
0.9997174861609935
0.9997203397471002
0.9997232824660672
0.9997263107239214
0.9997294206400189
0.9997326080549409
0.9997358685396625
0.9997391974059603
0.9997425897180289
0.9997460403052595
0.9997495437761358
0.9997530945331901
0.9997566867889659
0.9997603145829161
0.9997639717991831
0.9997676521851789
0.9997713493709058
0.9997750568889358
0.9997787681949826
0.9997824766889826
0.9997861757366184
0.999789858691199
0.9997935189158292
0.9997971498057795
0.9998007448109953
0.9998042974586536
0.999807801375697
0.9998112503112675
0.9998146381589661
0.9998179589788521
0.999821207019116
0.9998243767373436
0.9998274628212942
0.9998304602091191
0.9998333641089453
0.9998361700177438
0.999838873739411
0.9998414714019878
0.9998439594739426
0.9998463347794442
0.9998485945125521
0.9998507362502556
0.99985275796429
0.9998546580316642
0.9998564352438285
0.9998580888144233
0.999859618385539
0.9998610240324273
0.9998623062665952
0.9998634660372235
0.9998645047308337
0.9998654241691403
0.9998662266050007
0.9998669147163844
0.9998674915982533
0.9998679607522352
0.9998683260739502
0.9998685918378161
0.9998687626791196
0.9998688435730951
0.9998688398106694
0.9998687569704579
0.9998686008865753
0.9998683776116417
0.999868093373955
0.9998677545279949
0.9998673674981328
0.9998669387134
0.9998664745291916
0.9998659811393906
0.9998654644843727
0.9998649301253939
0.9998643831164765
0.9998638278826396
0.9998632680820384
0.9998627063326505
0.99986214441605
0.9998615822785878
0.9998610198645155
0
0
0.9996873881251451
0.9996866951088778
0.9996860243947708
0.999685375371801