# vtk DataFile Version 2.0
2D-ADE data file 
ASCII
DATASET RECTILINEAR_GRID
DIMENSIONS 128 128 1 
X_COORDINATES 128 int
0 1 2 3 4 5 6 7 8 9 10 11 12 13 14 15 16 17 18 19 20 21 22 23 24 25 26 27 28 29 30 31 32 33 34 35 36 37 38 39 40 41 42 43 44 45 46 47 48 49 50 51 52 53 54 55 56 57 58 59 60 61 62 63 64 65 66 67 68 69 70 71 72 73 74 75 76 77 78 79 80 81 82 83 84 85 86 87 88 89 90 91 92 93 94 95 96 97 98 99 100 101 102 103 104 105 106 107 108 109 110 111 112 113 114 115 116 117 118 119 120 121 122 123 124 125 126 127 
Y_COORDINATES 128 int
0 1 2 3 4 5 6 7 8 9 10 11 12 13 14 15 16 17 18 19 20 21 22 23 24 25 26 27 28 29 30 31 32 33 34 35 36 37 38 39 40 41 42 43 44 45 46 47 48 49 50 51 52 53 54 55 56 57 58 59 60 61 62 63 64 65 66 67 68 69 70 71 72 73 74 75 76 77 78 79 80 81 82 83 84 85 86 87 88 89 90 91 92 93 94 95 96 97 98 99 100 101 102 103 104 105 106 107 108 109 110 111 112 113 114 115 116 117 118 119 120 121 122 123 124 125 126 127 
Z_COORDINATES 1 int
0
POINT_DATA 16384
SCALARS density double
LOOKUP_TABLE default
0
0
0
0
0
0
0
0
0
0
0
0
0
0
0
0
0
0
0
0
0
0
0
0
0
0
0
0
0
0
0
0
0
0
0
0
0
0
0
0
0
0
0
0
0
0
0
0
0
0
0
0
0
0
0
0
0
0
0
0
0
0
0
0
0
0
0
0
0
0
0
0
0
0
0
0
0
0
0
0
0
0
0
0
0
0
0
0
0
0
0
0
0
0
0
0
0
0
0
0
0
0
0
0
0
0
0
0
0
0
0
0
0
0
0
0
0
0
0
0
0
0
0
0
0
0
0
0
0
0.9995291770490069
0.9995297485138841
0.9995299450513069
0.9995296891190099
0.9995292604042205
0.9995287580329033
0.9995282134072013
0.9995276569985396
0.9995271191333365
0.9995266244347767
0.9995261935710895
0.9995258453631852
0.9995255974074974
0.9995254662187898
0.9995254673636275
0.9995256155698655
0.9995259247929603
0.9995264082608184
0.9995270785111098
0.999527947423404
0.9995290262456437
0.9995303256146556
0.9995318555706807
0.9995336255660507
0.9995356444682671
0.9995379205578665
0.9995404615215795
0.999543274441354
0.9995463657798636
0.9995497413631225
0.9995534063608472
0.9995573652651647
0.9995616218682557
0.9995661792394936
0.9995710397026059
0.9995762048133682
0.9995816753383197
0.9995874512349665
0.9995935316339227
0.9995999148234229
0.9996065982365976
0.9996135784418934
0.9996208511369591
0.9996284111462851
0.9996362524228204
0.999644368053738
0.9996527502704481
0.9996613904628947
0.9996702791980996
0.9996794062428538
0.9996887605903971
0.9996983304908664
0.9997081034852519
0.9997180664425594
0.9997282055998615
0.9997385066048935
0.9997489545608624
0.999759534073135
0.9997702292975006
0.999781023989719
0.9997919015561062
0.9998028451049494
0.9998138374985609
0.9998248614058496
0.9998358993552902
0.9998469337882148
0.9998579471123743
0.9998689217557156
0.9998798402203383
0.9998906851365835
0.9999014393171882
0.9999120858114284
0.999922607959136
0.9999329894444481
0.9999432143491113
0.9999532672051267
0.9999631330464952
0.9999727974597841
0.9999822466332243
0.9999914674040206
1.0000004473035677
1.0000091746002435
1.0000176383394894
1.0000258283808907
1.0000337354320048
1.00004135107873
1.0000486678120373
1.0000556790509434
1.0000623791616574
1.0000687634728724
1.0000748282872345
1.0000805708890683
1.0000859895484846
1.0000910835220485
1.0000958530502155
1.0001002993518138
1.0001044246158617
1.000108231991082
1.0001117255735006
1.0001149103925695
1.0001177923962852
1.000120378435811
1.0001226762501376
1.0001246944513125
1.0001264425107728
1.000127930747302
1.0001291703171056
1.0001301732064805
1.0001309522276143
1.0001315210181503
1.000131894045378
1.0001320866160557
1.0001321148931241
1.000131995923719
1.000131747693898
1.0001313892317283
1.0001309407359398
1.0001304237091426
1.0001298615633805
1.0001292817199687
1.0001287172728242
1.0001282010114445
1.0001277659543144
1.000127515589781
1.000127743242811
1.0001283649727168
0
0
0.9995298698476998
0.9995300492770776
0.9995300705740002
0.9995298929520338
0.9995295805757052
0.9995291712303841
0.9995287142684945
0.9995282449179527
0.9995277897926655
0.9995273718457913
0.9995270120886772
0.999526729638249
0.99952654212376
0.9995264660685445
0.99952651709608
0.9995267100253258
0.9995270589345837
0.9995275772093738
0.9995282775774899
0.9995291721345101
0.9995302723625344
0.999531589143225
0.9995331327655441
0.9995349129284962
0.9995369387392143
0.9995392187067942
0.999541760732324
0.9995445720955941
0.9995476594389994
0.9995510287491695
0.9995546853368593
0.999558633815632
0.9995628780798522
0.9995674212824948
0.9995722658132566
0.9995774132774502
0.999582864476125
0.9995886193878727
0.9995946771527238
0.9996010360585439
0.9996076935302975
0.999614646122515
0.9996218895152623
0.9996294185138519
0.999637227052497
0.9996453082020337
0.9996536541817798
0.9996622563755381
0.9996711053516728
0.9996801908871428
0.9996895019953036
0.9996990269572505
0.9997087533564248
0.9997186681161854
0.9997287575400144
0.9997390073540321
0.9997494027514867
0.9997599284389078
0.9997705686836273
0.9997813073624041
0.9997921280109364
0.9998030138740566
0.9998139479564744
0.9998249130739505
0.9998358919048268
0.99984686704186
0.9998578210443352
0.9998687364904383
0.9998795960298725
0.9998903824367007
0.9999010786623719
0.9999116678888729
0.999922133581912
0.9999324595440112
0.999942629967338
0.9999526294860799
0.9999624432281177
0.999972056865735
0.999981456665058
0.9999906295339163
0.999999563067797
1.000008245593563
1.0000166662106178
1.0000248148292181
1.000032682205657
1.000040259974081
1.000047540674739
1.0000545177785192
1.0000611857076553
1.0000675398525671
1.0000735765848199
1.0000792932662605
1.0000846882544239
1.0000897609043597
1.000094511567061
1.0000989415847383
1.0001030532832036
1.000106849961683
1.0001103358804027
1.0001135162463377
1.0001163971975322
1.0001189857864339
1.0001212899626948
1.000123318555909
1.000125081258761
1.0001265886110577
1.000127851985159
1.0001288835733462
1.0001296963777808
1.0001303042038219
1.0001307216578301
1.000130964151482
1.0001310479164416
1.0001309900335464
1.000130808480063
1.0001305222099028
1.0001301513450886
1.0001297175384396
1.0001292443439402
1.0001287571842454
1.0001282850404822
1.000127865521902
1.0001275505829377
1.0001273793163907
1.0001274178963155
1.0001276219943498
0
0
0.9995305741243004
0.9995305212527046
0.9995304233502388
0.9995302680554777
0.9995299975524864
0.9995296440248078
0.9995292526521099
0.9995288504099058
0.999528460595536
0.999528105595313
0.9995278058699558
0.9995275799459421
0.9995274451020296
0.9995274176762222
0.9995275131769953
0.9995277463632972
0.9995281313119061
0.9995286814597678
0.9995294096297289
0.9995303280473039
0.9995314483513481
0.9995327815994269
0.9995343382684866
0.9995361282513444
0.9995381608494138
0.9995404447620547
0.9995429880729362
0.9995457982338387
0.99954888204633
0.9995522456417687
0.9995558944601032
0.9995598332279257
0.9995640659362526
0.9995685958184817
0.9995734253289821
0.9995785561227535
0.9995839890365863
0.9995897240721262
0.9995957603812419
0.9996020962540635
0.9996087291100234
0.99961565549221
0.9996228710652865
0.999630370617183
0.999638148064719
0.9996461964632467
0.9996545080203468
0.9996630741135458
0.9996718853119544
0.9996809314016811
0.9996902014148132
0.9996996836617069
0.9997093657663095
0.999719234704191
0.9997292768429668
0.9997394779847725
0.999749823410476
0.9997602979253228
0.9997708859057288
0.9997815713469935
0.9997923379117168
0.9998031689787682
0.9998140476926811
0.9998249570133968
0.9998358797663088
0.9998467986925964
0.9998576964998405
0.999868555912945
0.9998793597253728
0.9998900908507052
0.9999007323745129
0.9999112676064966
0.9999216801328308
0.9999319538685988
0.9999420731101683
0.9999520225873135
0.999961787514854
0.9999713536435365
0.9999807073098663
0.9999898354845597
0.9999987258192787
1.0000073666913132
1.0000157472458637
1.000023857435605
1.0000316880572333
1.0000392307847228
1.0000464781990708
1.0000534238143413
1.0000600620998723
1.000066388498565
1.000072399441216
1.0000780923569172
1.000083465679583
1.0000885188507302
1.0000932523186588
1.0000976675342492
1.0001017669436074
1.000105553977836
1.000109033040249
1.0001122094913566
1.0001150896319873
1.0001176806849263
1.0001199907754634
1.0001220289112585
1.0001238049619465
1.0001253296389156
1.000126614475743
1.0001276718098273
1.0001285147659222
1.000129157242482
1.0001296139019806
1.0001299001666353
1.0001300322230444
1.0001300270437672
1.0001299024341588
1.0001296770904833
1.0001293706855467
1.0001290041458233
1.0001286003110255
1.000128183858476
1.0001277801641928
1.0001274180722484
1.00012714519752
1.0001269952551173
1.0001269067901457
1.0001268657499283
0
0
0.9995311805271763
0.9995310914493759
0.9995309559002091
0.9995307554211719
0.9995304854032933
0.9995301690740586
0.999529822542869
0.9995294676207699
0.9995291278093876
0.9995288236339028
0.9995285736796046
0.9995283955916514
0.9995283061700895
0.999528321356156
0.9995284563524564
0.9995287257192099
0.9995291434184697
0.9995297228360308
0.9995304767962611
0.9995314175702096
0.9995325568774897
0.9995339058833537
0.9995354751919968
0.999537274836581
0.9995393142663344
0.999541602331078
0.9995441472635245
0.999546956659727
0.9995500374580494
0.9995533959170504
0.9995570375926921
0.9995609673152801
0.9995651891665557
0.9995697064573594
0.9995745217062714
0.9995796366196495
0.9995850520734487
0.9995907680972088
0.999596783860572
0.9996030976626649
0.9996097069246483
0.9996166081857033
0.9996237971026688
0.9996312684535072
0.9996390161447084
0.9996470332226878
0.9996553118891723
0.9996638435205077
0.9996726186907571
0.999681627198409
0.9996908580964727
0.9997002997256742
0.9997099397504644
0.9997197651975106
0.999729762496338
0.9997399175217975
0.9997502156380415
0.9997606417437115
0.9997711803180825
0.9997818154679335
0.9997925309749721
0.9998033103436673
0.9998141368494078
0.999824993586924
0.9998358635189649
0.999846729525242
0.9998575744516676
0.9998683811599381
0.9998791325774969
0.9998898117479145
0.9999004018816998
0.9999108864075162
0.9999212490237607
0.9999314737504051
0.9999415449809625
0.9999514475343945
0.9999611667067299
0.9999706883221264
0.9999799987830743
0.9999890851194049
0.9999979350357618
1.000006536957169
1.0000148800723483
1.0000229543744297
1.0000307506987347
1.0000382607573408
1.0000454771701608
1.0000523934923282
1.0000590042377184
1.0000653048984889
1.0000712919605772
1.0000769629151327
1.0000823162659358
1.0000873515328739
1.0000920692516144
1.0000964709696432
1.0001005592388776
1.000104337605096
1.0001078105944572
1.0001109836974003
1.0001138633502449
1.0001164569148124
1.0001187726564156
1.0001208197205682
1.0001226081087742
1.0001241486537962
1.0001254529948345
1.0001265335531113
1.0001274035084362
1.0001280767775738
1.0001285679958238
1.0001288925036258
1.00012906633899
1.0001291062361515
1.0001290296454766
1.0001288548036438
1.0001286008238228
1.0001282876399094
1.0001279360540882
1.0001275687141227
1.0001272111487496
1.000126886825222
1.000126612973173
1.0001264141392556
1.0001262860047784
1.0001262085262117
0
0
0.9995318481546429
0.999531725518461
0.9995315466933072
0.9995313117540345
0.9995310398700843
0.9995307366863989
0.9995304138482597
0.9995300919358067
0.9995297898695455
0.9995295252626702
0.9995293154888961
0.9995291772971796
0.9995291266484911
0.9995291788632718
0.9995293487191377
0.9995296504691393
0.9995300978533024
0.9995307041106402
0.9995314819829618
0.9995324437109203
0.999533601025718
0.9995349651377271
0.9995365467223357
0.9995383559033169
0.9995404022340885
0.9995426946771694
0.9995452415821414
0.9995480506624149
0.9995511289711287
0.9995544828765287
0.9995581180371793
0.9995620393773812
0.9995662510631778
0.9995707564793227
0.9995755582075997
0.9995806580068712
0.9995860567952154
0.9995917546345114
0.9995977507178
0.9996040433597215
0.9996106299903056
0.9996175071523348
0.9996246705024765
0.9996321148163018
0.9996398339972778
0.9996478210897438
0.999656068295828
0.9996645669962072
0.9996733077745441
0.9996822804453949
0.9996914740853313
0.9997008770669887
0.9997104770957171
0.9997202612485094
0.9997302160148656
0.9997403273392683
0.9997505806649564
0.9997609609787153
0.9997714528564334
0.9997820405092235
0.9997927078299463
0.9998034384400234
0.9998142157364722
0.9998250229391374
0.9998358431381315
0.9998466593415202
0.9998574545233235
0.9998682116718867
0.9998789138387
0.9998895441877209
0.999900086045231
0.9999105229502288
0.9999208387053274
0.9999310174280702
0.9999410436025398
0.9999509021310827
0.9999605783859236
0.9999700582604001
0.9999793282195114
0.9999883753494404
0.9999971874056905
1.000005752859461
1.000014060941889
1.0000221016857858
1.0000298659645215
1.000037345527736
1.0000445330335885
1.0000514220773002
1.0000580072157934
1.0000642839882783
1.0000702489326947
1.0000758995979575
1.0000812345520234
1.0000862533858248
1.0000909567131797
1.0000953461668143
1.0000994243906758
1.0001031950287531
1.000106662710631
1.0001098330340392
1.0001127125446687
1.000115308713534
1.000117629912173
1.0001196853859926
1.000121485226053
1.0001230403396282
1.0001243624198974
1.0001254639152017
1.0001263579983892
1.0001270585367794
1.00012758006332
1.0001279377504237
1.000128147390064
1.0001282253804478
1.0001281887099522
1.0001280549444083
1.0001278422915079
1.000127569711531
1.0001272567015014
1.000126922836129
1.0001265888410689
1.000126276962639
1.0001259999264274
1.0001257638813477
1.0001255896649373
1.0001254776046218
0
0
0.9995325890950849
0.9995324059658776
0.9995321808706268
0.9995319208970477
0.9995316350121366
0.999531329562655
0.9995310191909603
0.9995307186324494
0.9995304428455394
0.9995302080468134
0.9995300302431094
0.999529924842741
0.9995299068611815
0.9995299909574371
0.9995301913837072
0.9995305219773956
0.9995309961678582
0.9995316269701942
0.9995324269713085
0.9995334083140527
0.9995345826795698
0.9995359612673634
0.9995375547734398
0.9995393733669242
0.9995414266653976
0.9995437237091567
0.9995462729346342
0.9995490821472399
0.9995521584939081
0.9995555084356498
0.9995591377204378
0.9995630513567559
0.9995672535881607
0.9995717478692178
0.9995765368431526
0.9995816223215851
0.9995870052666704
0.9995926857759808
0.9995986630704286
0.9996049354854925
0.9996115004659987
0.9996183545646381
0.9996254934443681
0.9996329118848012
0.9996406037925999
0.9996485622158757
0.9996567793624964
0.9996652466221735
0.9996739545921334
0.9996828931061351
0.9996920512665574
0.9997014174792374
0.9997109794907376
0.9997207244276927
0.9997306388378953
0.9997407087327954
0.9997509196311065
0.999761256603238
0.9997717043163318
0.9997822470797009
0.9997928688905373
0.9998035534797969
0.9998142843582121
0.999825044862439
0.9998358182013684
0.9998465875026749
0.9998573358596794
0.9998680463786286
0.9998787022264742
0.9998892866792359
0.9998997831709971
0.9999101753435572
0.9999204470967142
0.9999305826391174
0.9999405665395588
0.9999503837785436
0.9999600197999122
0.9999694605622412
0.9999786925897157
0.999987703022125
0.9999964796636074
1.0000050110297571
1.0000132863927012
1.000021295823754
1.0000290302332797
1.0000364814074127
1.0000436420413261
1.0000505057687679
1.0000570671876419
1.000063321881456
1.0000692664365103
1.000074898454751
1.000080216562271
1.0000852204134836
1.0000899106910408
1.0000942891016091
1.0000983583676568
1.0001021222154225
1.0001055853592842
1.0001087534827329
1.0001116332161963
1.0001142321119505
1.000116558616364
1.0001186220397231
1.000120432523888
1.0001220010080496
1.000123339192843
1.0001244595031176
1.0001253750497092
1.000126099590772
1.000126647493184
1.0001270336936607
1.0001272736597466
1.000127383356341
1.0001273792227687
1.0001272781314725
1.0001270972987821
1.000126854279711
1.0001265671367958
1.0001262539935225
1.0001259314670257
1.000125615730388
1.0001253227166818
1.0001250594649638
1.0001248357847812
1.000124659628425
0
0
0.9995333757584887
0.9995331264413051
0.9995328532164703
0.9995325602605605
0.9995322522509691
0.9995319387765893
0.9995316314200804
0.9995313415971181
0.9995310830437731
0.9995308701235421
0.9995307170454072
0.9995306380333188
0.9995306472220808
0.9995307585107577
0.999530985532435
0.9995313416461359
0.9995318399096754
0.9995324930502367
0.9995333134387213
0.9995343130637939
0.9995355035042207
0.9995368959001892
0.9995385009239824
0.9995403287499975
0.9995423890241838
0.999544690833054
0.9995472426724654
0.9995500524163893
0.9995531272859052
0.9995564738186975
0.9995600978393493
0.9995640044307414
0.9995681979068849
0.9995726817875221
0.9995774587748222
0.9995825307325084
0.9995878986677263
0.9995935627159559
0.9995995221292352
0.9996057752679457
0.9996123195963532
0.9996191516820696
0.9996262671995385
0.99963366093761
0.9996413268111886
0.9996492578769073
0.9996574463527031
0.9996658836411255
0.9996745603561483
0.9996834663532255
0.9996925907622809
0.9997019220232999
0.9997114479241805
0.9997211556404875
0.9997310317767624
0.9997410624090597
0.9997512331284117
0.9997615290849482
0.9997719350324558
0.9997824353731977
0.9997930142028758
0.9998036553556575
0.9998143424492539
0.9998250589300622
0.9998357881184438
0.9998465132542149
0.9998572175424748
0.9998678841998702
0.9998784965014237
0.9998890378280137
0.9998994917145868
0.9999098418991281
0.999920072372392
0.9999301674283282
0.9999401117150977
0.9999498902865075
0.9999594886536475
0.9999688928364555
0.9999780894148925
0.9999870655793784
0.9999958091800957
1.0000043087747692
1.0000125536744953
1.000020533987229
1.0000282406585157
1.000035665509108
1.0000428012691194
1.0000496416084155
1.0000561811629838
1.0000624155570814
1.0000683414210005
1.000073956404351
1.000079259184812
1.0000842494723527
1.0000889280089666
1.0000932965640075
1.000097357925251
1.0001011158858304
1.0001045752272295
1.000107741698514
1.0001106219920106
1.0001132237156354
1.0001155553620742
1.0001176262750189
1.0001194466126517
1.000121027308566
1.0001223800303323
1.0001235171358935
1.000124451627941
1.00012519710635
1.000125767719141
1.0001261781127282
1.0001264433800283
1.00012657900212
1.0001266007892131
1.0001265248378288
1.0001263674618248
1.0001261449993277
1.000125873659967
1.000125569662529
1.0001252483909864
1.0001249225981081
1.00012460499808
1.0001243061043774
1.0001240310006214
1.0001237844448465
0
0
0.9995341921367176
0.9995338756043779
0.9995335496267104
0.999533216575185
0.9995328821170874
0.9995325543079209
0.9995322418325178
0.999531955363184
0.9995317069645475
0.9995315090052281
0.999531374370787
0.999531316220087
0.9995313477114951
0.9995314819417481
0.9995317319100981
0.9995321104584335
0.9995326302217354
0.9995333035902598
0.9995341426725592
0.9995351592577906
0.9995363647786867
0.9995377702750877
0.9995393863575424
0.9995412231708993
0.9995432903579797
0.999545597023423
0.9995481516978373
0.9995509623024272
0.9995540361143277
0.9995573797328833
0.9995609990471604
0.9995648992049809
0.9995690845837918
0.9995735587636874
0.9995783245029026
0.9995833837160842
0.9995887374556435
0.9995943858964569
0.9996003283241701
0.9996065631273174
0.999613087793422
0.9996198989092095
0.9996269921650005
0.9996343623633082
0.9996420034315927
0.9996499084390769
0.999658069617477
0.9996664783854263
0.9996751253763477
0.999684000469473
0.999693092823682
0.9997023909138085
0.9997118825690454
0.999721555013099
0.9997313949057166
0.999741388385279
0.9997515211121464
0.9997617783124992
0.9997721448224677
0.999782605132385
0.9997931434310632
0.9998037436500345
0.999814389507761
0.9998250645538562
0.9998357522134004
0.9998464358314629
0.9998570987179628
0.999867724193007
0.9998782956328344
0.9998887965164867
0.9998992104732967
0.9999095213312372
0.999919713166145
0.9999297703517626
0.9999396776105038
0.9999494200647735
0.9999589832886238
0.999968353359478
0.9999775169095918
0.9999864611768948
0.9999951740548146
1.0000036441406652
1.0000118607821666
1.000019814121679
1.0000274951377106
1.0000348956833258
1.0000420085210697
1.000048827354087
1.000055346853148
1.0000615626793503
1.0000674715023123
1.0000730710137284
1.000078359936212
1.0000833380273995
1.0000880060793356
1.0000923659132084
1.0000964203695266
1.0001001732938706
1.0001036295183716
1.0001067948390796
1.0001096759893955
1.000112280609739
1.0001146172136293
1.0001166951503242
1.0001185245641795
1.0001201163508462
1.0001214821104145
1.0001226340976024
1.0001235851691042
1.000124348728069
1.0001249386652824
1.0001253692969538
1.000125655300485
1.0001258116465674
1.000125853516279
1.0001257962041408
1.000125655042372
1.0001254452971928
1.0001251818423706
1.0001248788645727
1.0001245500471367
1.000124207421054
1.0001238606836744
1.0001235187338253
1.000123187579155
1.0001228699378246
0
0
0.9995350259893729
0.9995346391006587
0.9995342562685491
0.9995338797734706
0.9995335146170584
0.9995331666734232
0.9995328435751724
0.9995325547772181
0.9995323105013867
0.9995321218020897
0.9995320004115057
0.9995319583562906
0.9995320078544983
0.9995321612404504
0.9995324308640018
0.9995328290178254
0.9995333678848072
0.9995340594869188
0.9995349156353528
0.9995359478839149
0.9995371674843789
0.9995385853426887
0.9995402119758581
0.9995420574695508
0.9995441314362954
0.9995464429743368
0.9995490006272401
0.9995518123444055
0.9995548854426962
0.9995582265694196
0.9995618416669297
0.9995657359391411
0.9995699138202567
0.9995743789460153
0.9995791341277787
0.9995841813297373
0.9995895216495327
0.9995951553025434
0.9996010816100613
0.9996072989915463
0.9996138049611029
0.9996205961282638
0.9996276682031248
0.9996350160058123
0.9996426334802015
0.9996505137117523
0.9996586489492756
0.9996670306303789
0.9996756494103143
0.9996844951938931
0.9996935571701195
0.9997028238491654
0.9997122831013137
0.9997219221974835
0.9997317278509904
0.9997416862601953
0.9997517831517595
0.9997620038242381
0.9997723331918229
0.9997827558280808
0.9997932560096024
0.9998038177595197
0.9998144248909231
0.9998250610502282
0.99983570976061
0.9998463544656286
0.9998569785732035
0.9998675655000925
0.9998780987170267
0.9998885617946386
0.999898938450283
0.999909212595822
0.9999193683863828
0.9999293902700568
0.9999392630384365
0.9999489718778384
0.9999585024209866
0.9999678407988857
0.999976973692549
0.9999858883842215
0.9999945728076777
1.0000030155971658
1.0000112061345554
1.0000191345942366
1.0000267919853238
1.0000341701907536
1.000041262002874
1.000048061155176
1.000054562349853
1.0000607612809287
1.000066654652742
1.000072240193638
1.0000775166647602
1.000082483863898
1.000087142624387
1.0000914948091038
1.000095543299635
1.0000992919807297
1.0001027457201639
1.000105910344166
1.000108792608548
1.0001114001656977
1.0001137415275714
1.000115826024809
1.0001176637620868
1.0001192655697824
1.000120642952014
1.0001218080310377
1.0001227734879494
1.0001235524996899
1.000124158672237
1.0001246059688866
1.000124908632278
1.0001250811021005
1.000125137928193
1.0001250936599457
1.0001249627033122
1.000124759201812
1.0001244968870908
1.0001241886402021
1.0001238462827235
1.000123480629421
1.000123100326217
1.0001227119945102
1.0001223209203427
1.0001219296670885
0
0
0.999535862689391
0.9995354031814149
0.9995349614518679
0.9995345393174753
0.9995341398805581
0.999533767913009
0.9995334300551827
0.999533134214338
0.9995328893343419
0.9995327053628346
0.9995325928560346
0.9995325628246363
0.9995326266347372
0.9995327958660647
0.9995330822135702
0.999533497417481
0.9995340531955232
0.9995347611794888
0.9995356328582872
0.9995366795243532
0.9995379122217174
0.9995393416956398
0.9995409783436228
0.9995428321675143
0.999544912726606
0.9995472290917449
0.9995497898005652
0.9995526028139811
0.9995556754741408
0.9995590144640841
0.999562625769368
0.9995665146419559
0.9995706855666742
0.9995751422305396
0.9995798874952636
0.999584923373226
0.9995902510071818
0.9995958706539488
0.9996017816722744
0.9996079825150499
0.9996144707259851
0.9996212429408003
0.9996282948929475
0.9996356214238014
0.9996432164972062
0.9996510732182093
0.9996591838557536
0.9996675398690509
0.9996761319373192
0.9996849499925258
0.9996939832547589
0.9997032202698336
0.9997126489487377
0.9997222566085248
0.999732030014292
0.999741955421908
0.9997520186211893
0.999762204979284
0.9997724994840689
0.9997828867874222
0.9997933512483024
0.9998038769756119
0.9998144478708827
0.9998250476708673
0.9998356599901635
0.9998462683640196
0.999856856291498
0.9998674072791682
0.9998779048855028
0.9998883327661239
0.9998986747200246
0.9999089147368321
0.999919037045153
0.9999290261619576
0.9999388669429218
0.9999485446335631
0.9999580449209585
0.9999673539857592
0.9999764585541734
0.9999853459495353
0.9999940041430379
1.0000024218031862
1.0000105883435058
1.0000184939680363
1.0000261297141486
1.0000334874922405
1.0000405601218902
1.0000473413640965
1.000053825949256
1.000060009600597
1.000065889052839
1.0000714620658928
1.0000767274334792
1.000081684986598
1.0000863355918257
1.0000906811444614
1.0000947245565897
1.0000984697401467
1.000101921585109
1.0001050859329295
1.0001079695453647
1.0001105800688121
1.00011292599429
1.0001150166131607
1.0001168619686704
1.000118472803361
1.000119860502362
1.000121037032547
1.0001220148774224
1.0001228069674655
1.0001234266057402
1.0001238873887026
1.0001242031205062
1.000124387717583
1.000124455105524
1.000124419110669
1.0001242933193566
1.0001240908896927
1.0001238244042854
1.0001235056688889
1.0001231452535726
1.0001227524319003
1.0001223348853137
1.0001218981338054
1.0001214455354779
1.0001209791762042
0
0
0.999536686915561
0.9995361549646967
0.9995356539501017
0.9995351847649939
0.9995347489406589
0.9995343504120341
0.9995339945767803
0.9995336881562322
0.9995334390699281
0.999533256157051
0.9995331489480772
0.9995331275648922
0.9995332025556105
0.99953338477061
0.9995336852746616
0.9995341152619266
0.999534685978509
0.9995354086548993
0.9995362944430544
0.9995373543560498
0.9995385992102892
0.9995400395698021
0.9995416856920705
0.999543547475173
0.9995456344062064
0.9995479555109954
0.9995505193051847
0.9995533337468586
0.9995564061909089
0.9995597433453938
0.9995633512301711
0.9995672351381072
0.9995713995991719
0.9995758483477336
0.9995805842933551
0.9995856094953837
0.999590925141595
0.9995965315311185
0.9996024280618355
0.9996086132223908
0.9996150845889072
0.9996218388264356
0.9996288716951124
0.9996361780609365
0.9996437519110197
0.9996515863730963
0.9996596737390379
0.9996680054920599
0.9996765723372663
0.9996853642351514
0.99969437043766
0.9997035795263776
0.9997129794524524
0.9997225575778409
0.9997323007175042
0.9997421951822169
0.9997522268216942
0.9997623810677924
0.9997726429776009
0.9997829972763049
0.9997934283997474
0.9998039205367013
0.999814457670895
0.9998250236229
0.9998356020920175
0.9998461766983424
0.9998567310251867
0.9998672486620618
0.9998777132484018
0.9998881085181986
0.9998984183456722
0.9999086267920755
0.9999187181536623
0.9999286770107972
0.9999384882781251
0.9999481372556392
0.9999576096804342
0.9999668917788623
0.9999759703187499
0.9999848326612856
0.9999934668121535
1.0000018614714428
1.0000100060818575
1.0000178908747392
1.0000255069134156
1.0000328461334107
1.0000399013790706
1.0000466664362093
1.0000531360603988
1.000059306000608
1.0000651730179202
1.0000707348991331
1.000075990465098
1.0000809395737063
1.0000855831174824
1.0000899230157987
1.0000939622017535
1.0000977046037962
1.000101155122201
1.0001043196005148
1.0001072047920945
1.0001098183218657
1.0001121686434096
1.0001142649914634
1.0001161173299138
1.000117736295304
1.0001191331358452
1.000120319645874
1.0001213080956681
1.000122111156407
1.0001227418197174
1.0001232133113558
1.0001235389990282
1.0001237322922918
1.000123806529113
1.0001237748514415
1.0001236500746822
1.0001234445175988
1.0001231697860486
1.0001228366252946
1.0001224546358995
1.0001220319528787
1.000121575061545
1.000121088698884
1.0001205747029196
1.0001200342486083
0
0
0.9995374846611648
0.9995368823824322
0.9995363229889698
0.9995358065213269
0.9995353334201157
0.9995349066999271
0.9995345306861328
0.9995342111845733
0.9995339551328107
0.9995337703974791
0.999533665634626
0.9995336501376283
0.9995337336894816
0.9995339264617329
0.9995342389147339
0.999534681707086
0.9995352656177602
0.9995360014741458
0.9995369000835533
0.9995379721683293
0.9995392283036985
0.9995406788575035
0.9995423339315487
0.9995442033044276
0.9995462963757696
0.9995486221119108
0.9995511889931166
0.9995540049625316
0.9995570773770869
0.9995604129606356
0.9995640177596167
0.999567897101565
0.9995720555567981
0.9995764969035953
0.999581224097191
0.9995862392428648
0.9995915435733891
0.999597137431062
0.9996030202544902
0.9996091905702554
0.9996156459895268
0.9996223832096232
0.999629398020475
0.9996366853158577
0.9996442391092187
0.9996520525538557
0.9996601179671515
0.9996684268585171
0.9996769699606698
0.9996857372638283
0.9996947180523995
0.9997039009437194
0.9997132739284215
0.9997228244120174
0.9997325392573101
0.999742404827294
0.9997524070282507
0.9997625313527984
0.9997727629227219
0.9997830865314684
0.9997934866862538
0.9998039476498058
0.9998144534817959
0.9998249880800916
0.9998355352219866
0.9998460786055875
0.9998566018915775
0.9998670887455565
0.9998775228811606
0.9998878881041469
0.9998981683575753
0.9999083477682009
0.9999184106941108
0.9999283417735944
0.9999381259751633
0.9999477486485685
0.9999571955765982
0.9999664530273636
0.9999755078067384
0.9999843473105409
0.9999929595760254
1.0000013333322078
1.0000094580485193
1.0000173239812922
1.0000249222175686
1.0000322447157437
1.0000392843425772
1.0000460349061517
1.000052491184386
1.0000586489487733
1.0000645049830623
1.0000700570966605
1.000075304132598
1.0000802459699416
1.0000848835206098
1.00008921872058
1.0000932545155374
1.0000969948410185
1.0001004445971666
1.0001036096182065
1.0001064966367577
1.0001091132431101
1.0001114678395715
1.0001135695899757
1.0001154283644131
1.0001170546792273
1.0001184596322605
1.0001196548332947
1.0001206523295474
1.000121464526088
1.0001221041009052
1.0001225839138035
1.0001229169082841
1.0001231160065873
1.000123193995421
1.0001231633955106
1.0001230363183404
1.000122824318964
1.000122538197869
1.0001221877981494
1.0001217818131778
1.000121327543511
1.0001208304851896
1.0001202945373588
1.0001197205578354
1.0001191089192898
0
0
0.9995382437863615
0.9995375745296083
0.9995369587338998
0.9995363958225183
0.9995358854254996
0.9995354297330425
0.9995350322470942
0.999534697952729
0.9995344329189672
0.9995342441968371