# vtk DataFile Version 2.0
2D-ADE data file 
ASCII
DATASET RECTILINEAR_GRID
DIMENSIONS 128 128 1 
X_COORDINATES 128 int
0 1 2 3 4 5 6 7 8 9 10 11 12 13 14 15 16 17 18 19 20 21 22 23 24 25 26 27 28 29 30 31 32 33 34 35 36 37 38 39 40 41 42 43 44 45 46 47 48 49 50 51 52 53 54 55 56 57 58 59 60 61 62 63 64 65 66 67 68 69 70 71 72 73 74 75 76 77 78 79 80 81 82 83 84 85 86 87 88 89 90 91 92 93 94 95 96 97 98 99 100 101 102 103 104 105 106 107 108 109 110 111 112 113 114 115 116 117 118 119 120 121 122 123 124 125 126 127 
Y_COORDINATES 128 int
0 1 2 3 4 5 6 7 8 9 10 11 12 13 14 15 16 17 18 19 20 21 22 23 24 25 26 27 28 29 30 31 32 33 34 35 36 37 38 39 40 41 42 43 44 45 46 47 48 49 50 51 52 53 54 55 56 57 58 59 60 61 62 63 64 65 66 67 68 69 70 71 72 73 74 75 76 77 78 79 80 81 82 83 84 85 86 87 88 89 90 91 92 93 94 95 96 97 98 99 100 101 102 103 104 105 106 107 108 109 110 111 112 113 114 115 116 117 118 119 120 121 122 123 124 125 126 127 
Z_COORDINATES 1 int
0
POINT_DATA 16384
SCALARS density double
LOOKUP_TABLE default
0
0
0
0
0
0
0
0
0
0
0
0
0
0
0
0
0
0
0
0
0
0
0
0
0
0
0
0
0
0
0
0
0
0
0
0
0
0
0
0
0
0
0
0
0
0
0
0
0
0
0
0
0
0
0
0
0
0
0
0
0
0
0
0
0
0
0
0
0
0
0
0
0
0
0
0
0
0
0
0
0
0
0
0
0
0
0
0
0
0
0
0
0
0
0
0
0
0
0
0
0
0
0
0
0
0
0
0
0
0
0
0
0
0
0
0
0
0
0
0
0
0
0
0
0
0
0
0
0
0.997455629008598
0.9974982975706562
0.9975410145291086
0.9975825425385342
0.9976297699020886
0.9976835767666221
0.9977432930349596
0.9978082006009176
0.997877493263006
0.9979502427804456
0.9980254682399585
0.9981022029169643
0.9981795334250595
0.9982566234830149
0.9983327292029871
0.9984072092510123
0.9984795307784362
0.9985492712945362
0.9986161165576453
0.9986798548141295
0.9987403679616113
0.9987976203924046
0.9988516463615514
0.9989025367309083
0.9989504258799242
0.9989954794605134
0.999037883521448
0.9990778353516321
0.9991155362074536
0.9991511859137759
0.9991849791764862
0.9992171033295912
0.9992477371700321
0.9992770505117279
0.9993052041140346
0.9993323497007395
0.999358629871561
0.9993841778044216
0.9994091167388571
0.9994335593063086
0.9994576068230391
0.9994813486821236
0.9995048619734613
0.9995282114304083
0.9995514497565983
0.9995746183362081
0.999597748284119
0.9996208617560535
0.9996439734169008
0.999667091959219
0.9996902215717813
0.9997133632765428
0.9997365160771459
0.9997596778885641
0.9997828462419307
0.9998060187783201
0.9998291935588935
0.999852369226162
0.9998755450528581
0.9998987209123542
0.9999218971991396
0.9999450747211021
0.9999682545783939
0.9999914380375138
1.0000146264044685
1.00003782089795
1.0000610225225137
1.0000842319429022
1.0001074493638227
1.0001306744245082
1.0001539061238434
1.0001771427991009
1.0002003821884562
1.0002236216131128
1.0002468583176065
1.0002700900050197
1.0002933155960783
1.0003165362265514
1.0003397564761982
1.0003629857960294
1.0003862400716494
1.0004095432330247
1.000432928799981
1.0004564412431176
1.000480137045642
1.0005040853748677
1.0005283683119695
1.0005530806406848
1.0005783292525225
1.0006042322777209
1.0006309180869803
1.000658524319365
1.0006871970704607
1.0007170903207359
1.0007483656017584
1.000781191797976
1.0008157448790724
1.0008522072694868
1.000890766503762
1.0009316128017665
1.000974935233375
1.0010209162279466
1.0010697243129156
1.0011215051254656
1.001176370915408
1.0012343889286395
1.0012955692127306
1.001359852505768
1.0014270989464658
1.0014970783694996
1.0015694629152998
1.0016438225794824
1.0017196241478872
1.0017962337366997
1.0018729229493168
1.0019488788158322
1.002023218445268
1.002095011774499
1.0021633194228143
1.0022272581982494
1.0022860677832333
1.002339069146386
1.0023856205756654
1.0024266607653374
1.0024692284833978
1.002512000535498
0
0
0.9974979611218309
0.9975256818543141
0.9975605392204788
0.9976011692391519
0.9976479744469464
0.9977005055202787
0.9977585933194354
0.9978216746646541
0.9978889675529511
0.9979595995208898
0.9980326688600563
0.998107279275284
0.9981825737458992
0.9982577604624271
0.9983321303765224
0.9984050682749311
0.998476058991658
0.9985446894502278
0.9986106469350123
0.9986737140210064
0.998733760730457
0.9987907346009768
0.9988446494090966
0.998895573293406
0.9989436169696266
0.998988922634553
0.9990316540270543
0.9990719879643114
0.9991101075133632
0.9991461968057034
0.9991804373692103
0.9992130057482865
0.9992440721175244
0.9992737995698574
0.9993023437755234
0.9993298527570516
0.9993564665979076
0.9993823169860782
0.9994075265760509
0.9994322082218718
0.9994564641820316
0.9994803854194212
0.9995040511166112
0.9995275285021566
0.9995508730443231
0.9995741290227814
0.9995973304444862
0.999620502233889
0.9996436616041042
0.9996668195064742
0.9996899820602452
0.999713151879152
0.9997363292336708
0.9997595130124642
0.9997827014703152
0.9998058927699285
0.9998290853396334
0.9998522780777889
0.9998754704379692
0.9998986624278122
0.9999218545501224
0.9999450477088135
0.9999682430958137
0.9999914420691297
1.0000146460276134
1.000037856285044
1.0000610739452207
1.0000842997809003
1.0001075341225907
1.0001307767681118
1.0001540269300582
1.0001772832450377
1.0002005438748496
1.000223806734241
1.0002470698811325
1.000270332101686
1.0002935937132797
1.0003168575927133
1.0003401304153667
1.0003634240651929
1.0003867571483118
1.0004101565185923
1.0004336587065283
1.0004573111373543
1.0004811730338536
1.0005053159249435
1.0005298237211788
1.00055479236812
1.0005803291406734
1.0006065516867615
1.0006335869576064
1.000661570166569
1.0006906438943124
1.0007209574051543
1.0007526661631052
1.0007859314464023
1.0008209198698277
1.0008578025495452
1.0008967535992361
1.000937947639096
1.0009815560356854
1.0010277416697921
1.0010766521446106
1.0011284114865642
1.0011831105422384
1.0012407964225742
1.0013014614764832
1.0013650323791607
1.001431359987097
1.0015002106359987
1.0015712595354218
1.001644086841536
1.0017181768725427
1.0017929208055147
1.001867623190693
1.001941512952199
1.0020137605128498
1.002083502942566
1.0021498764765016
1.0022120489413684
1.0022692790536623
1.002321044919755
1.002367220294154
1.0024073859970803
1.0024419723737206
1.0024695697914687
0
0
0.9975399850289308
0.9975598141673161
0.9975897278652001
0.9976281570910072
0.9976725422334373
0.997722642694145
0.9977781951025821
0.9978385186303707
0.9979028700740247
0.9979704648195715
0.9980404842626653
0.9981121081397761
0.9981845486098938
0.9982570735800961
0.998329022689107
0.9983998178111888
0.9984689690793858
0.998536077042586
0.998600831462127
0.9986630072109941
0.9987224577950563
0.998779107079809
0.9988329398414916
0.9988839917573908
0.9989323394079014
0.9989780907871069
0.9990213767163286
0.9990623434348861
0.9991011465139956
0.9991379461141405
0.9991729034941895
0.9992061785916327
0.9992379284348619
0.9992683061241089
0.9992974601272888
0.9993255336760445
0.9993526641079203
0.999378982072447
0.9994046105909212
0.9994296640215373
0.9994542470253934
0.9994784536502094
0.9995023666467898
0.9995260571112462
0.9995495845095863
0.9995729970978225
0.9995963327077529
0.9996196198325249
0.9996428789214842
0.9996661237826903
0.9996893629935485
0.9997126012329982
0.9997358404690961
0.9997590809597443
0.9997823220480004
0.9998055627540321
0.9998288021814424
0.9998520397657141
0.9998752753970347
0.999898509449703
0.9999217427469027
0.999944976484241
0.9999682121293755
0.9999914513093109
1.0000146956923792
1.0000379468689995
1.0000612062343963
1.0000844748776077
1.000107753484243
1.0001310422652971
1.0001543409302978
1.0001776487294158
1.0002009645947363
1.0002242874144356
1.0002476164735856
1.000270952090449
1.00029429646641
1.0003176547508286
1.0003410362998792
1.000364456082697
1.0003879361620212
1.0004115071539985
1.0004352095572806
1.0004590948390022
1.0004832261773693
1.000507678788047
1.0005325398021379
1.0005579077124447
1.0005838914545357
1.000610609231216
1.0006381872148196
1.0006667582643949
1.0006964607709863
1.0007274376946158
1.0007598357868621
1.0007938049126917
1.0008294973067782
1.0008670665358128
1.0009066659008061
1.0009484460100773
1.000992551287866
1.0010391152534983
1.0010882545052717
1.0011400614618688
1.0011945960404192
1.0012518765725436
1.0013118703674118
1.001374484415684
1.001439556784077
1.0015068492728099
1.0015760418954895
1.001646729694184
1.0017184223351137
1.001790546880917
1.0018624541925565
1.001933429529529
1.002002708312267
1.0020694989087184
1.0021330158580348
1.0021925104115619
1.002247275042571
1.0022966638857551
1.0023404554991038
1.0023784405708445
1.0024080219774016
1.0024276116929978
0
0
0.9975805363962251
0.9975993486242556
0.9976270015418885
0.9976617725781437
0.9977028254550878
0.9977497682735814
0.9978018704905711
0.9978584899283548
0.9979189851155769
0.997982648263469
0.9980487446578632
0.9981165446313337
0.9981853451227358
0.9982544874196622
0.9983233712422624
0.9983914641738182
0.9984583071555617
0.9985235167546145
0.9985867846898487
0.9986478750185599
0.9987066194079351
0.9987629109457563
0.9988166969629628
0.9988679713348518
0.9989167666966168
0.9989631469550377
0.9990072004050022
0.9990490336718503
0.9990887666047311
0.9991265281501375
0.9991624531470303
0.9991966799135753
0.9992293484470207
0.999260599036705
0.9992905710962063
0.9993194020514229
0.9993472261708114
0.9993741732837468
0.9994003673935477
0.9994259252441585
0.9994509549365744
0.9994755547084933
0.999499811987398
0.9995238028056158
0.9995475916308234
0.9995712316235662
0.9995947652915138
0.9996182254745868
0.9996416365701324
0.9996650158952611
0.9996883750842316
0.9997117214304855
0.9997350591023623
0.999758390184902
0.9997817155239038
0.9998050353695062
0.9998283498331355
0.999851659182732
0.9998749640067883
0.999898265278655
0.9999215643499652
0.9999448628972412
0.9999681628400474
0.9999914662435498
1.0000147752138644
1.0000380917917249
1.0000614178490639
1.0000847549942613
1.0001081044948623
1.000131467231308
1.0001548437009051
1.0001782340971928
1.0002016384947563
1.0002250571721787
1.0002484911047045
1.000271942652098
1.000295416455279
1.0003189205374947
1.0003424675829913
1.0003660763404343
1.000389773072855
1.0004135929546973
1.000437581303721
1.000461794534888
1.0004863007371305
1.0005111798023893
1.000536523077103
1.0005624325544695
1.0005890196742881
1.0006164038378271
1.0006447107702554
1.000674070866739
1.0007046176376218
1.0007364863244868
1.0007698126976745
1.0008047319759492
1.0008413777412866
1.0008798806674293
1.00092036684937
1.0009629555185755
1.0010077559576307
1.0010548634857772
1.0011043544675187
1.001156280391495
1.0012106611665725
1.001267477877274
1.0013266653235504
1.0013881047347513
1.0014516170910979
1.0015169575057066
1.0015838111152053
1.0016517908992741
1.0017204378114872
1.001789223579075
1.0018575566170236
1.0019247917322138
1.001990244265421
1.0020532075044781
1.0021129735153294
1.0021688644093125
1.0022202707999162
1.0022665806986468
1.0023070880892762
1.0023414281524983
1.0023687680641364
1.0023873665360237
0
0
0.9976265158484383
0.9976446395192136
0.997669712778687
0.9977011003018794
0.9977386403373392
0.9977816237633745
0.997829429120333
0.9978815338808104
0.997937347121231
0.9979962483680532
0.9980576110104299
0.9981208102531192
0.998185238721891
0.998250321852636
0.9983155289769905
0.9983803807510437
0.9984444538777958
0.9985073835059172
0.9985688636215245
0.9986286457373974
0.998686536178388
0.9987423922680917
0.9987961177287069
0.9988476576011802
0.9988969929753193
0.9989441357891992
0.9989891239138449
0.9990320166845609
0.9990728909777339
0.9991118378665906
0.9991489598273582
0.9991843684151288
0.999218182292223
0.9992505254750818
0.9992815256701042
0.9993113125929095
0.9993400162048722
0.9993677648488394
0.9993946833149349
0.9994208909095766
0.9994464996298863
0.9994716125575668
0.9994963225799028
0.9995207115226458
0.999544849744519
0.9995687962017479
0.9995925989498292
0.9996162960144517
0.9996399165383384
0.9996634820981333
0.9996870080854064
0.9997105050567395
0.9997339799766956
0.9997574373006386
0.9997808798682839
0.9998043096005763
0.9998277280099023
0.9998511365457204
0.9998745368043505
0.9998979306335098
0.9999213201603677
0.9999447077676765
0.9999680960372455
0.999991487674766
1.0000148854256659
1.0000382919888517
1.0000617099343028
1.0000851416315728
1.0001085891992483
1.0001320544899457
1.000155539130852
1.0001790446452399
1.0002025726846415
1.0002261254031237
1.0002497060029476
1.0002733194736766
1.0002969735337917
1.000320679765137
1.0003444549071518
1.0003683222520274
1.0003923130569214
1.0004164678690708
1.000440837648171
1.0004654845711674
1.0004904824196696
1.000515916479555
1.0005418829234183
1.0005684876944922
1.0005958449587293
1.0006240752322726
1.000653303317517
1.000683656187049
1.0007152609387824
1.0007482429089993
1.0007827239778637
1.0008188210422073
1.0008566445726284
1.0008962971255715
1.000937871653867
1.0009814494559364
1.001027097625552
1.0010748659081832
1.0011247829309549
1.001176851843925
1.0012310454829922
1.0012873012324297
1.0013455158225355
1.0014055403417932
1.0014671757717781
1.001530169366775
1.0015942121989796
1.0016589381754197
1.001723924817072
1.0017886960841904
1.0018527275285174
1.0019154541102586
1.0019762815981752
1.0020346021010027
1.0020898093197237
1.0021413055449238
1.0021885246158286
1.00223097041734
1.0022680424011126
1.0022990466181865
1.0023238418445126
1.002341793287791
0
0
0.9976786188298504
0.9976951387254461
0.9977175816754243
0.9977457240364415
0.9977792695748534
0.9978177071080101
0.997860621565615
0.9979075377548496
0.9979579600986179
0.9980113932342045
0.9980673289752302
0.9981252555324747
0.9981846713662572
0.9982450950097589
0.9983060725251359
0.9983671832396716
0.9984280437715563
0.9984883105801761
0.9985476813036244
0.9986058950580969
0.9986627318495934
0.9987180112479439
0.9987715904737684
0.9988233620491982
0.9988732511609951
0.9989212128764867
0.9989672293367442
0.9990113070271128
0.9990534741933701
0.9990937784349904
0.9991322844695408
0.9991690720291897
0.9992042338267039
0.999237873518065
0.9992701035938765
0.9993010431515928
0.9993308155322534
0.9993595458437472
0.9993873584313463
0.9994143743888134
0.9994407092243011
0.9994664708009118
0.9994917576611417
0.9995166578190127
0.9995412480673974
0.9995655938062573
0.9995897493561243
0.9996137586856595
0.9996376564566283
0.999661469276408
0.9996852170474582
0.9997089143134829
0.9997325715204832
0.9997561961339861
0.9997797935779257
0.9998033679829745
0.9998269227503366
0.9998504609500639
0.9998739855805776
0.9998974997188307
0.9999210065894851
0.9999445095778791
0.9999680122067001
0.9999915180913098
1.0000150308845057
1.00003855421878
1.0000620916532361
1.0000856466333683
1.0001092224747814
1.0001328223862165
1.0001564495523367
1.000180107301634
1.0002037993883945
1.0002275304185608
1.0002513064461929
1.000275135758953
1.0002990298570467
1.000323004610487
1.0003470815556554
1.0003712892662153
1.0003956647087604
1.0004202544740701
1.0004451157644667
1.000470317019792
1.000495938080787
1.0005220698189998
1.0005488132041216
1.0005762778281415
1.0006045799543057
1.0006338402004813
1.000664180994487
1.0006957239485563
1.000728587289332
1.0007628834501787
1.000798716888703
1.0008361821413714
1.0008753620772999
1.0009163262727505
1.0009591294028755
1.0010038095414258
1.0010503862728293
1.001098858551513
1.001149202285698
1.0012013676708924
1.0012552763459424
1.0013108184866708
1.00136784998571
1.0014261898907166
1.0014856182866232
1.0015458748118327
1.0016066579957816
1.0016676255971098
1.0017283961097667
1.0017885516140308
1.001847642218779
1.0019051922780569
1.0019607083074076
1.0020136892078328
1.0020636404007741
1.0021100827063005
1.0021525378898553
1.0021905492671563
1.0022237214429703
1.002251557372338
1.0022737728090514
1.0022901534141169
0
0
0.9977359605682298
0.9977505565196839
0.9977702766593046
0.9977948674045597
0.9978240669431959
0.9978575975266131
0.997895135295557
0.9979363183349759
0.9979807954194113
0.9980281998080887
0.9980781488639706
0.9981302541724024
0.9981841272682733
0.9982393849877786
0.9982956546150236
0.9983525780146365
0.9984098149608404
0.9984670459387898
0.9985239744990752
0.9985803291899293
0.9986358650789715
0.9986903648654764
0.998743639585756
0.9987955289240451
0.9988459011530216
0.9988946527389367
0.9989417076533621
0.9989870164342304
0.9990305550320877
0.9990723234645407
0.9991123442854939
0.9991506608599735
0.9991873354243124
0.9992224469088933
0.999256088508575
0.9992883650044965
0.9993193898680233
0.9993492822091465
0.999378163662484
0.999406155328655
0.9994333749024404
0.999459934118778
0.9994859366322792
0.9995114764172642
0.9995366367367254
0.9995614896853979
0.9995860962696679
0.99961050695075
0.9996347625512422
0.9996588954111817
0.9996829306783059
0.9997068876269168
0.9997307809178533
0.9997546217350806
0.9997784187588593
0.9998021789582603
0.9998259082047849
0.9998496117227516
0.999873294400633
0.9998969609911667
0.9999206162277461
0.9999442648816386
0.9999679117801993
0.9999915618016215
1.0000152198578236
1.0000388908744546
1.0000625797761162
1.0000862914858741
1.0001100309508117
1.0001338032094094
1.0001576135211796
1.00018146758336
1.0002053718623454
1.0002293340675819
1.0002533637916429
1.0002774733309587
1.0003016786868504
1.0003260007262824
1.0003504664574896
1.0003751103497107
1.000399975602011
1.0004251152474497
1.0004505929695926
1.0004764835116484
1.0005028725761194
1.0005298561444127
1.000557539188798
1.0005860337986963
1.0006154567931818
1.0006459269349688
1.000677561891727
1.000710475103823
1.0007447727117733
1.0007805506729863
1.0008178921601343
1.0008568652889733
1.0008975211790732
1.000939892313691
1.0009839911402232
1.0010298088431773
1.0010773142272744
1.0011264526665555
1.00117714510164
1.0012292870963138
1.001282747991446
1.0013373702150403
1.0013929688200587
1.0014493313264012
1.001506217941644
1.0015633622282811
1.0016204722750834
1.0016772324219152
1.0017333055841662
1.0017883362151059
1.0018419539811698
1.001893778402674
1.0019434245999337
1.0019905091973618
1.0020346564909595
1.0020755089288267
1.0021127262518463
1.0021459578904748
1.002174892917521
1.0021992665010675
1.0022188235427587
1.0022333188151944
0
0
0.9977976681963061
0.9978102233042921
0.9978270409406158
0.997847838666613
0.9978724775992488
0.9979007996736424
0.9979325989976305
0.9979676710012606
0.9980058039006575
0.9980467660567359
0.998090311460483
0.998136179973949
0.9981840988706638
0.998233785873156
0.9982849518234622
0.9983373033140507
0.9983905456162679
0.9984443858811887
0.9984985365444173
0.9985527188468819
0.9986066663475232
0.9986601282961132
0.9987128727460266
0.9987646893062793
0.9988153914571537
0.998864818380699
0.9989128362815806
0.998959339192107
0.9990042492663752
0.9990475165728279
0.9990891183940467
0.9991290580405838
0.9991673631856909
0.9992040837331527
0.99923928924301
0.9992730659600064
0.9993055135153999
0.9993367414009349
0.9993668653398168
0.9993960036986566
0.9994242740925207
0.9994517903297473
0.9994786598235379
0.9995049815650577
0.9995308447114705
0.9995563277969065
0.9995814985302017
0.99960641410545
0.9996311219238266
0.9996556606099505
0.9996800612036262
0.9997043484166804
0.9997285418621283
0.9997526571856651
0.999776707053953
0.9998007019773236
0.9998246509640689
0.9998485620181182
0.9998724425012301
0.9998962993852726
0.9999201394206063
0.9999439692442746
0.9999677954478666
0.999991624620683
1.000015463380174
1.0000393183991274
1.0000631964382367
1.000087104393554
1.0001110493707777
1.0001350388020387
1.0001590806250054
1.0001831835479114
1.0002073574262793
1.0002316137763927
1.000255966445723
1.0002804324505483
1.000305032975525
1.0003297945093426
1.000354750066241
1.0003799404175173
1.000405415233535
1.0004312340190487
1.0004574667166588
1.0004841938579694
1.0005115061611347
1.0005395035065623
1.0005682932669455
1.0005979880188958
1.000628702714995
1.0006605514404796
1.000693643911863
1.0007280818912778
1.000763955688314
1.0008013409017997
1.0008402955210969
1.0008808574659156
1.0009230426020848
1.0009668432344492
1.0010122270518695
1.0010591364855954
1.0011074884409352
1.0011571743705427
1.0012080606717675
1.0012599894054361
1.0013127793448353
1.0013662273683643
1.0014201102058797
1.0014741865373589
1.00152819942515
1.0015818790412052
1.0016349456306946
1.0016871126353233
1.0017380898951842
1.0017875868653383
1.001835315777294
1.0018809946998872
1.001924350814728
1.0019651241600906
1.002003069765506
1.0020379582971304
1.002069581908768
1.0020977410348701
1.0021222352499584
1.0021429132446398
1.0021596404182713
1.0021721415846698
0
0
0.9978628571740075
0.9978732824823338
0.9978870665869143
0.997903948630591
0.9979238754584333
0.9979467945779346
0.9979726483966709
0.9980013800454788
0.9980329187385594
0.9980671773018931
0.9981040479141965
0.9981433984845726
0.9981850723788785
0.9982288882821272
0.9982746407100561
0.998322101717338
0.9983710236706355
0.9984211429482281
0.9984721844093438
0.9985238664071685
0.9985759060981007
0.998628024809114
0.998679953246417
0.9987314363613701
0.9987822377286238
0.9988321433304277
0.9988809646761206
0.9989285412145749
0.9989747420186036
0.9990194667345175
0.9990626457991806
0.999104239934085
0.9991442389344243
0.9991826597835868
0.9992195441415871
0.999254955279626
0.9992889745604707
0.9993216975924815
0.9993532302096102
0.9993836844463027
0.9994131746812137
0.9994418141147879
0.9994697117227885
0.9994969697925211
0.9995236821044602
0.9995499327741539
0.9995757957229959
0.9996013347067266
0.999626603801189
0.9996516482280668
0.9996765053994876
0.9997012060680104
0.9997257754851314
0.9997502344935283
0.9997746005024504
0.9997988883187997
0.9998231108262755
0.9998472795200712
0.999871404914575
0.999895496846671
0.9999195646983943
0.9999436175610352
0.9999676643595279
0.9999917139521569
1.0000157752172958
1.0000398571365487
1.0000639688828787
1.0000881199230303
1.0001123201457909
1.0001365800309119
1.0001609108771978
1.0001853251114194
1.00020983670121
1.000234461693696
1.000259218896122
1.0002841307042443
1.0003092240684808
1.000334531567146
1.0003600925320582
1.0003859541468108
1.0004121724154402
1.0004388128828392
1.0004659509818354
1.0004936718882842
1.0005220697863533
1.0005512464808823
1.000581309339705
1.0006123686014055
1.0006445341370918
1.0006779118018287
1.000712599546331
1.0007486834781456
1.0007862340618272
1.0008253026306175
1.0008659183512856
1.0009080857446375
1.0009517828230585
1.0009969598693125
1.0010435388522696
1.0010914134576459
1.0011404497051315
1.0011904871251172
1.001241340474622
1.0012928019783889
1.0013446440829175
1.0013966227052664
1.0014484809431192
1.00149995318826
1.0015507695538117
1.0016006604897427
1.0016493614269706
1.0016966172628186
1.0017421864808735
1.0017858447072814
1.0018273875595225
1.0018666326404104
1.0019034205256439
1.001937615290254
1.0019691050042305
1.001997798667577
1.0020236223215415
1.0020465169388422
1.002066423362995
1.0020832883070718
1.0020970587899474
1.0021074809768027
0
0
0.9979305786159721
0.9979388244502252
0.9979495285183334
0.9979624547378524
0.9979776130643787
0.9979950690379367
0.998014907321327
0.9980372125224234
0.9980620591838629
0.9980895024023534
0.9981195689577016
0.998152252555664
0.9981875100426333
0.9982252585596607
0.9982653747111992
0.9983076956263641
0.9983520217453444
0.99839812112996
0.9984457349780527
0.9984945839889606
0.9985443752329665
0.9985948091983078
0.9986455867288765
0.9986964156162954
0.9987470166616882
0.9987971290704936
0.9988465150850914
0.9988949637927932
0.9989422940707476
0.9989883566461033
0.9990330352621121
0.9990762469519965
0.9991179414355946
0.9991580996714494
0.9991967316202783
0.9992338733041312
0.9992695832768664
0.999303938652378
0.9993370308630123
0.9993689613375573
0.9993998372926161
0.9994297678210545
0.9994588604365425
0.9994872181959108
0.9995149374749678
0.9995421064234776
0.9995688040766653
0.9995951000588347
0.9996210547833391
0.999646720034422
0.9996721398107444
0.9996973513164138
0.9997223860004827
0.9997472705668473
0.9997720278998262
0.9997966778733799
0.9998212380315993
0.9998457241433459
0.999870150644269
0.9998945309850726
0.9999188779066838
0.9999432036619239
0.9999675202005897
0.9999918393315529
1.0000161728724786
1.0000405327956736
1.0000649313777785
1.0000893813616698
1.0001138961408709
1.0001384899796588
1.000163178285217
1.0001879779507552
1.0002129077894417
1.0002379890770419
1.0002632462152803
1.0002887075172802
1.0003144061007472
1.0003403808543632
1.0003666774196311
1.000393349106606
1.0004204576408686
1.0004480736244528
1.0004762765888322
1.000505154526348
1.0005348028089878
1.0005653224396944
1.0005968176286573
1.0006293927407521
1.0006631487143094
1.0006981790992753
1.0007345658985405
1.0007723754155011
1.0008116543117513
1.0008524260620981
1.0008946879631457
1.000938408811908
1.0009835273284937
1.0010299513578567
1.0010775578546167
1.0011261936345297
1.0011756768665105
1.0012257992779021
1.0012763290490079
1.0013270143758535
1.001377587677816
1.0014277704151908
1.0014772784584882
1.001525827916006
1.0015731412809943
1.001618953707804
1.0016630191731226
1.0017051162344262
1.0017450530710914
1.0017826714812477
1.0018178495359276
1.0018505027096243
1.001880583329211
1.0019080782214662
1.0019330056514018
1.0019554113546327
1.0019753601557666
1.001992927068774
1.002008187748915
1.0020211996450334
1.0020319676769607
1.0020402618382103
0
0
0.9979998622139762
0.998005937480905
0.9980135896552091
0.9980226033942129
0.9980330487575619
0.998045105494142
0.9980589901005915
0.9980749260461743
0.998093127586183
0.9981137847351811
0.9981370533701772
0.9981630473556986
0.9981918316162444
0.9982234175235571
0.9982577609323883
0.9982947627873366
0.9983342721152915
0.9983760909965587
0.9984199810557298
0.9984656710159835
0.9985128648750072
0.9985612503054522
0.9986105069469913
0.9986603143254525
0.9987103591995699
0.9987603421924703
0.9988099836096863
0.998859028377647
0.9989072500579053
0.9989544539059279
0.9990004789529501
0.999045199099338
0.9990885232216682
0.9991303943156773
0.9991707877241284
0.9992097085314312
0.9992471882428046
0.9992832809008986
0.9993180588224844
0.9993516081575706
0.9993840244796103
0.9994154086063871
0.9994458628267548
0.9994754876708108
0.9995043793141876
0.9995326276560674
0.9995603150607121
0.9995875157088202
0.9996142954717874
0.9996407122011706
0.9996668163178688
0.999692651589455
0.9997182559972841
0.999743662614255
0.9997689004360187
0.9997939951300383
0.9998189696858786
0.9998438449650429
0.999868640158982
0.9998933731698165
0.9999180609304844
0.9999427196804977
0.9999673652113086
0.9999920130924543
1.0000166788870015
1.0000413783629394
1.000066127706439
1.000090943743429
1.000115844177619
1.0001408478556133
1.000165975072435
1.0001912479329031
1.000216690784778
1.0002423307373716
1.0002681982733814
1.000294327951293
1.0003207591806333
1.0003475370331725
1.0003747130313432
1.0004023458330906
1.000430501713243
1.0004592547289204
1.0004886864538933
1.000518885176899
1.0005499444829062
1.0005819611736697
1.0006150325318102
1.0006492529865787
1.0006847102933187
1.0007214813860803
1.0007596280978555
1.0007991929612743
1.0008401953023411
1.0008826278216767
1.0009264538251883
1.0009716052244184
1.001017981382421
1.0010654488400348
1.0011138419247743
1.0011629642231048
1.001212590886863
1.0012624717438374
1.0013123351868398
1.0013618928194208
1.0014108448340415
1.0014588860849043
1.0015057127893203
1.001551029747107
1.0015945579084768
1.0016360420520658
1.0016752582627382
1.001712020832832
1.001746188166933
1.0017776672590792
1.0018064163134817
1.0018324451430558
1.0018558132177722
1.0018766253350408
1.0018950252685026
1.0019111887339471
1.001925314278709
1.0019376088300438
1.0019482723362374
1.0019574693031332
1.001965259763117
1.0019714326985152
0
0
0.9980697613482932
0.998073729959268
0.9980784270567488
0.9980836598288947
0.998089553518176
0.9980963907653184
0.9981045111265011
0.998114268039441
0.9981260044032696
0.9981400357076974
0.9981566379926746
0.9981760368096295
0.9981983981102605
0.9982238220142601
0.9982523398763484
0.9982839146591802
0.998318444197473
0.9983557667939371
0.9983956685799672
0.9984378920744884
0.9984821454148265
0.9985281118067089
0.9985754588272745
0.9986238473038235
0.9986729395717758
0.9987224069804893
0.9987719365626965
0.9988212368131922
0.9988700425382553
0.9989181187438283
0.9989652635332641
0.9990113099898024
0.9990561270291645
0.9990996192263917
0.9991417256488909
0.9991824177631929
0.9992216965228146
0.9992595887843224
0.9992961432330357
0.9993314260239157
0.999365516353289
0.999398502171049
0.9994304762209177
0.9994615325603698
0.9994917636658667
0.999521258178271
0.999550099293213
0.9995783637568552
0.9996061213929176
0.9996334350642907
0.9996603609626364
0.9996869491210068
0.9997132440553178
0.9997392854574684
0.9997651088827695
0.9997907463942084
0.9998162271437514
0.9998415778848956
0.9998668234205315
0.9998919869959175
0.9999170906488949
0.999942155529231
0.9999672021972028
0.999992250909084
1.0000173218948973
1.0000424356321234
1.0000676131184034
1.0000928761467347
1.000118247588119
1.0001437516888294
1.0001694143918178
1.0001952636935698
1.0002213300480403
1.000247646827127
1.0002742508415605
1.0003011829164499
1.000328488501835
1.0003562182810462
1.0003844287198203
1.000413182479343
1.0004425485995954
1.0004726023491048
1.0005034246365498
1.0005351008912777
1.000567719344676
1.0006013686819009
1.0006361350808952
1.0006720987084665
1.000709329795478
1.0007478844586577
1.0007878004693658
1.0008290931856794
1.0008717518614718
1.0009157365257102
1.0009609755903275
1.0010073643013564
1.0010547641019776
1.0011030029342343
1.001151876473529
1.0012011502697145
1.0012505627609294
1.0012998291290027
1.0013486459734349
1.0013966967884926
1.0014436582278654
1.001489207127393
1.0015330282239865
1.0015748224559944
1.0016143156578807
1.0016512673751143
1.0016854794334173
1.0017168038121131
1.001745149306724
1.001770486440516
1.0017928501022066
1.0018123394137137
1.0018291145031453
1.0018433903049986
1.0018554278817051
1.0018655242047467
1.001874001114617
1.0018811892965598
1.0018874048333217
1.0018929083383337
1.0018978106535827
1.0019019212972682
0
0
0.9981393810714169
0.9981413556682334
0.9981432597436208
0.99814492556008
0.9981465242160339
0.9981484288487489
0.9981510899550452
0.9981549769120123
0.9981605477116073
0.9981682307819113