# vtk DataFile Version 2.0
2D-ADE data file 
ASCII
DATASET RECTILINEAR_GRID
DIMENSIONS 128 128 1 
X_COORDINATES 128 int
0 1 2 3 4 5 6 7 8 9 10 11 12 13 14 15 16 17 18 19 20 21 22 23 24 25 26 27 28 29 30 31 32 33 34 35 36 37 38 39 40 41 42 43 44 45 46 47 48 49 50 51 52 53 54 55 56 57 58 59 60 61 62 63 64 65 66 67 68 69 70 71 72 73 74 75 76 77 78 79 80 81 82 83 84 85 86 87 88 89 90 91 92 93 94 95 96 97 98 99 100 101 102 103 104 105 106 107 108 109 110 111 112 113 114 115 116 117 118 119 120 121 122 123 124 125 126 127 
Y_COORDINATES 128 int
0 1 2 3 4 5 6 7 8 9 10 11 12 13 14 15 16 17 18 19 20 21 22 23 24 25 26 27 28 29 30 31 32 33 34 35 36 37 38 39 40 41 42 43 44 45 46 47 48 49 50 51 52 53 54 55 56 57 58 59 60 61 62 63 64 65 66 67 68 69 70 71 72 73 74 75 76 77 78 79 80 81 82 83 84 85 86 87 88 89 90 91 92 93 94 95 96 97 98 99 100 101 102 103 104 105 106 107 108 109 110 111 112 113 114 115 116 117 118 119 120 121 122 123 124 125 126 127 
Z_COORDINATES 1 int
0
POINT_DATA 16384
SCALARS density double
LOOKUP_TABLE default
0
0
0
0
0
0
0
0
0
0
0
0
0
0
0
0
0
0
0
0
0
0
0
0
0
0
0
0
0
0
0
0
0
0
0
0
0
0
0
0
0
0
0
0
0
0
0
0
0
0
0
0
0
0
0
0
0
0
0
0
0
0
0
0
0
0
0
0
0
0
0
0
0
0
0
0
0
0
0
0
0
0
0
0
0
0
0
0
0
0
0
0
0
0
0
0
0
0
0
0
0
0
0
0
0
0
0
0
0
0
0
0
0
0
0
0
0
0
0
0
0
0
0
0
0
0
0
0
0
0.9996870148888395
0.9996870777124461
0.9996869865987218
0.9996866880273749
0.999686178570039
0.9996854960048641
0.9996846766468525
0.9996837517945569
0.9996827494453263
0.9996816949080469
0.9996806103808654
0.9996795151349103
0.9996784258555415
0.9996773569562716
0.9996763208352726
0.9996753281134864
0.9996743878516807
0.9996735077442734
0.9996726942910024
0.9996719529495479
0.9996712882711984
0.9996707040213212
0.999670203286171
0.9996697885674457
0.9996694618657515
0.9996692247540332
0.9996690784418435
0.9996690238312674
0.9996690615651863
0.9996691920685361
0.9996694155831135
0.999669732196476
0.9996701418654022
0.9996706444343784
0.9996712396495264
0.9996719271683736
0.9996727065658423
0.9996735773368174
0.999674538895638
0.9996755905728426
0.9996767316094829
0.9996779611493176
0.9996792782291796
0.999680681767809
0.999682170553428
0.999683743230335
0.9996853982847818
0.9996871340303951
0.9996889485933981
0.9996908398978783
0.9996928056513477
0.9996948433308311
0.9996969501697142
0.9996991231455792
0.9997013589692477
0.9997036540752366
0.9997060046138431
0.99970840644504
0.9997108551343782
0.9997133459510623
0.9997158738683671
0.99971843356653
0.9997210194382673
0.9997236255970074
0.9997262458879508
0.9997288739020166
0.9997315029927305
0.9997341262960734
0.999736736753289
0.9997393271366168
0.9997418900778909
0.9997444180999067
0.9997469036504419
0.9997493391387597
0.9997517169744249
0.9997540296081963
0.9997562695747577
0.9997584295369993
0.9997605023315519
0.9997624810152288
0.9997643589120379
0.9997661296603796
0.9997677872600553
0.9997693261186799
0.999770741097114
0.999772027553505
0.9997731813855559
0.9997741990706379
0.9997750777033958
0.9997758150305106
0.9997764094823279
0.9997768602010796
0.9997771670655069
0.9997773307116982
0.9997773525500644
0.9997772347783818
0.9997769803909521
0.9997765931839606
0.9997760777572117
0.9997754395124833
0.999774684648837
0.9997738201552786
0.9997728538012676
0.999771794125625
0.9997706504244859
0.9997694327389838
0.9997681518434214
0.9997668192346972
0.9997654471237636
0.999764048429823
0.9997626367777656
0.9997612264990399
0.9997598326356736
0.9997584709468407
0.9997571579127399
0.9997559107276681
0.9997547472693388
0.9997536860662533
0.9997527461560113
0.9997519466641143
0.9997513056759391
0.99975084029232
0.9997505654966845
0.9997504863560691
0.9997505476107875
0.999750667707426
0
0
0.9996869518278257
0.9996870147960084
0.9996869148634173
0.9996866299886
0.9996861782888222
0.9996855765538055
0.9996848501129739
0.9996840249434986
0.9996831258675382
0.9996821751593877
0.9996811928364768
0.9996801966970307
0.9996792024270166
0.9996782237426507
0.9996772725811297
0.9996763592835273
0.999675492765995
0.9996746806781657
0.999673929549221
0.9996732449208952
0.9996726314677495
0.9996720931055632
0.999671633088611
0.9996712540967012
0.9996709583126656
0.9996707474910845
0.9996706230188506
0.9996705859682381
0.9996706371429886
0.999670777117986
0.9996710062729537
0.9996713248206784
0.9996717328301363
0.9996722302449673
0.9996728168976364
0.9996734925196843
0.9996742567483734
0.999675109130099
0.9996760491208513
0.9996770760840629
0.9996781892861226
0.9996793878898544
0.9996806709462348
0.9996820373846296
0.9996834860018086
0.9996850154500051
0.9996866242242697
0.9996883106493669
0.999690072866461
0.999691908819824
0.999693816243804
0.999695792650274
0.9996978353167929
0.9996999412756807
0.9997021073042335
0.9997043299162648
0.9997066053551846
0.9997089295887812
0.9997112983059081
0.9997137069152122
0.999716150546083
0.9997186240519352
0.9997211220159772
0.9997236387595358
0.9997261683530623
0.9997287046298504
0.9997312412025398
0.999733771482398
0.9997362887014023
0.9997387859370599
0.9997412561399328
0.9997436921637516
0.9997460867980245
0.9997484328029584
0.9997507229465493
0.9997529500435951
0.9997551069964236
0.9997571868370374
0.9997591827704196
0.9997610882186454
0.9997628968655032
0.9997646027012377
0.9997662000670817
0.9997676836991731
0.9997690487715122
0.9997702909375481
0.9997714063700675
0.9997723917989866
0.9997732445467536
0.9997739625610105
0.999774544444273
0.9997749894803442
0.999775297657303
0.9997754696868767
0.9997755070201273
0.9997754118593825
0.9997751871664519
0.9997748366671867
0.9997743648525523
0.9997737769763991
0.9997730790502423
0.9997722778353567
0.9997713808326253
0.9997703962705619
0.999769333092034
0.9997682009401763
0.9997670101440473
0.9997657717044754
0.9997644972805089
0.9997631991766368
0.9997618903307286
0.999760584301994
0.9997592952572839
0.9997580379522292
0.9997568277035654
0.9997556803444322
0.9997546121441825
0.9997536396361082
0.9997527793541519
0.9997520474535283
0.9997514591831553
0.9997510267666958
0.9997507562190693
0.9997506425580359
0.9997506660640391
0.9997507853922133
0
0
0.9996870427886926
0.9996871148305522
0.9996870147726707
0.9996867438336121
0.9996863279298146
0.9996857793373247
0.9996851196728134
0.9996843705246208
0.9996835529018955
0.9996826862536807
0.9996817885643466
0.9996808760656827
0.9996799632502613
0.999679062956029
0.9996781864903788
0.9996773437517453
0.9996765433576394
0.9996757927712405
0.9996750984221934
0.9996744658192964
0.9996738996546772
0.999673403899424
0.9996729818906204
0.9996726364101618
0.9996723697555996
0.9996721838035454
0.9996720800659501
0.9996720597397883
0.9996721237504665
0.9996722727894519
0.9996725073464268
0.9996728277364245
0.9996732341222335
0.9996737265324898
0.9996743048757216
0.9996749689507372
0.9996757184536087
0.999676552981609
0.9996774720343425
0.9996784750124044
0.9996795612138043
0.9996807298284578
0.9996819799309796
0.9996833104720658
0.9996847202686862
0.9996862079933615
0.9996877721627443
0.9996894111257526
0.9996911230514817
0.9996929059171258
0.9996947574961244
0.9996966753467579
0.9996986568014009
0.9997006989566353
0.9997027986644368
0.9997049525246068
0.9997071568786633
0.9997094078053398
0.9997117011178874
0.9997140323633112
0.9997163968237159
0.9997187895198587
0.9997212052170641
0.9997236384335608
0.9997260834513674
0.99972853432974
0.9997309849212757
0.9997334288906353
0.9997358597359323
0.9997382708127011
0.9997406553604439
0.9997430065316041
0.999745317422917
0.999747581108926
0.9997497906775564
0.9997519392674816
0.9997540201071097
0.9997560265548842
0.9997579521406622
0.9997597906078319
0.9997615359558819
0.9997631824830479
0.9997647248287344
0.9997661580153008
0.9997674774889117
0.9997686791590296
0.9997697594362657
0.999770715268182
0.9997715441727921
0.9997722442693988
0.9997728143065572
0.9997732536868835
0.9997735624885572
0.9997737414833222
0.9997737921509363
0.9997737166899703
0.9997735180250066
0.9997731998102615
0.9997727664297922
0.9997722229944178
0.9997715753356413
0.9997708299967962
0.9997699942218039
0.9997690759418358
0.9997680837603194
0.9997670269365928
0.999765915368597
0.9997647595747975
0.999763570675476
0.9997623603731478
0.9997611409315679
0.9997599251521492
0.9997587263459372
0.9997575582963849
0.9997564352062147
0.999755371619222
0.9997543823165863
0.9997534821345326
0.9997526856515229
0.9997520066307793
0.9997514577188955
0.9997510491144689
0.9997507863761035
0.999750664854272
0.9997506887301284
0.999750845477696
0
0
0.9996873419505099
0.9996874004968103
0.9996872857185416
0.9996870139100507
0.9996866114438904
0.9996860934129661
0.9996854783819912
0.9996847837846337
0.9996840275569818
0.9996832268015581
0.9996823974504281
0.9996815540546038
0.999680709814521
0.9996798765787888
0.9996790648927524
0.999678284076856
0.9996775423212839
0.9996768467821592
0.9996762036770874
0.9996756183780359
0.999675095499633
0.9996746389818505
0.9996742521664234
0.9996739378670308
0.9996736984330735
0.9996735358073231
0.9996734515774925
0.9996734470221185
0.999673523150893
0.9996736807398631
0.9996739203616701
0.9996742424112478
0.9996746471271588
0.9996751346089761
0.9996757048308922
0.9996763576519389
0.999677092823007
0.9996779099910191
0.9996788087004465
0.9996797883925068
0.9996808484022259
0.9996819879536819
0.9996832061536192
0.9996845019837207
0.9996858742917368
0.9996873217817387
0.9996888430036877
0.9996904363425783
0.9996921000073508
0.9996938320197988
0.9996956302036855
0.9996974921742681
0.9996994153284434
0.9997013968356984
0.9997034336300724
0.9997055224033035
0.9997076595993493
0.9997098414104398
0.9997120637748408
0.9997143223764569
0.9997166126464417
0.9997189297669113
0.9997212686769079
0.9997236240806697
0.9997259904583373
0.9997283620790965
0.9997307330168625
0.9997330971684582
0.9997354482743386
0.9997377799417798
0.9997400856705208
0.9997423588807264
0.9997445929432136
0.999746781211743
0.9997489170572651
0.9997509939038728
0.9997530052662937
0.9997549447886154
0.999756806284039
0.9997585837753021
0.9997602715355314
0.9997618641291277
0.9997633564524202
0.9997647437736739
0.9997660217721708
0.9997671865759561
0.9997682347979686
0.9997691635701711
0.9997699705754273
0.9997706540767779
0.9997712129439144
0.9997716466765659
0.9997719554246602
0.999772140005057
0.9997722019148035
0.9997721433407977
0.999771967165914
0.9997716769715695
0.9997712770368966
0.9997707723345911
0.999770168523702
0.999769471939517
0.9997686895808714
0.9997678290950878
0.9997668987608885
0.999765907469457
0.9997648647038962
0.9997637805170789
0.9997626655078493
0.999761530795129
0.9997603879891493
0.9997592491580356
0.999758126787574
0.9997570337311128
0.9997559831450967
0.9997549883938942
0.9997540629136225
0.9997532200273225
0.9997524727575791
0.9997518333740286
0.9997513128188319
0.9997509196691508
0.999750661523776
0.9997505413687475
0.9997505752363862
0.9997507679653657
0
0
0.9996878539404958
0.9996878545811732
0.9996877025599042
0.9996874146816715
0.9996870104005806
0.9996865054967425
0.9996859162043032
0.9996852578204415
0.9996845458340601
0.9996837950102105
0.9996830193093094
0.9996822317038607
0.9996814440957695
0.9996806672714583
0.9996799109275529
0.9996791837170762
0.9996784933095115
0.9996778464597837
0.9996772490824237
0.9996767063264846
0.9996762226485861
0.999675801882974
0.9996754473075115
0.999675161705232
0.9996749474209246
0.999674806412841
0.999674740299322
0.9996747504006281
0.9996748377759186
0.9996750032557498
0.999675247470118
0.9996755708724372
0.999675973759531
0.9996764562880299
0.9996770184872715
0.999677660269087
0.9996783814345892
0.999679181678328
0.9996800605899379
0.9996810176536214
0.9996820522456077
0.9996831636299063
0.9996843509525023
0.9996856132342924
0.9996869493629142
0.9996883580837527
0.9996898379902802
0.9996913875139888
0.999693004914087
0.9996946882671944
0.9996964354572141
0.999698244165595
0.9997001118621685
0.9997020357967554
0.999704012991723
0.9997060402356686
0.9997081140784112
0.999710230827442
0.9997123865460038
0.9997145770529297
0.9997167979244013
0.9997190444977138
0.9997213118772043
0.9997235949423839
0.9997258883584088
0.999728186588892
0.9997304839111528
0.9997327744338654
0.9997350521171552
0.9997373107950637
0.9997395442003776
0.9997417459916863
0.9997439097826242
0.9997460291730937
0.9997480977823774
0.9997501092838811
0.9997520574413659
0.999753936146355
0.9997557394565275
0.9997574616347438
0.9997590971884742
0.9997606409092391
0.9997620879118102
0.9997634336727577
0.9997646740680849
0.9997658054095296
0.9997668244792839
0.9997677285627272
0.9997685154789494
0.9997691836087007
0.9997697319195864
0.9997701599882026
0.9997704680191017
0.9997706568603465
0.999770728015633
0.9997706836528242
0.9997705266089638
0.9997702603917096
0.9997698891773393
0.9997694178053641
0.9997688517699845
0.9997681972084828
0.999767460886849
0.9997666501827551
0.9997657730661673
0.9997648380776585
0.9997638543045997
0.9997628313550906
0.9997617793294795
0.9997607087888579
0.999759630719824
0.9997585564940309
0.9997574978201551
0.9997564666841071
0.9997554752754112
0.9997545358947799
0.9997536608342902
0.999752862191943
0.999752151679266
0.9997515403683042
0.9997510385381944
0.9997506548948187
0.9997503985136788
0.9997502771883052
0.9997503064775232
0.9997504979718695
0
0
0.9996885427149256
0.9996884616083683
0.9996882540877039
0.999687932023605
0.9996875099739893
0.9996870022664974
0.9996864228079583
0.9996857850413224
0.9996851022033905
0.9996843870474993
0.9996836517849992
0.9996829078645718
0.9996821658817419
0.9996814355403529
0.9996807256480469
0.9996800441302597
0.9996793980661616
0.9996787937375219
0.9996782366839463
0.9996777317612139
0.9996772832004142
0.9996768946663497
0.9996765693136045
0.9996763098397216
0.9996761185347067
0.9996759973268015
0.9996759478241001
0.9996759713522063
0.9996760689877047
0.9996762415877727
0.9996764898158232
0.9996768141635579
0.9996772149693907
0.9996776924336354
0.9996782466304706
0.9996788775170641
0.9996795849399013
0.9996803686386951
0.999681228247932
0.9996821632964248
0.9996831732049367
0.9996842572822283
0.9996854147196117
0.9996866445843359
0.9996879458119028
0.9996893171976191
0.9996907573874929
0.9996922648687567
0.9996938379601472
0.999695474802188
0.9996971733476262
0.9996989313522456
0.9997007463662126
0.9997026157261617
0.999704536548174
0.999706505721844
0.9997085199055773
0.9997105755232992
0.9997126687627148
0.9997147955752603
0.9997169516778946
0.9997191325568282
0.9997213334733227
0.9997235494716307
0.9997257753891786
0.9997280058690229
0.9997302353746551
0.9997324582071329
0.9997346685245879
0.9997368603640205
0.9997390276654
0.9997411642979234
0.9997432640883981
0.9997453208515545
0.9997473284221925
0.9997492806889189
0.9997511716293317
0.999752995346346
0.9997547461054824
0.9997564183727617
0.9997580068529897
0.9997595065280415
0.9997609126949019
0.9997622210030516
0.9997634274909447
0.9997645286211596
0.9997655213139798
0.9997664029789983
0.9997671715445311
0.999767825484463
0.9997683638423606
0.9997687862525289
0.9997690929579076
0.9997692848245544
0.9997693633526894
0.9997693306841283
0.9997691896061691
0.9997689435518338
0.9997685965966288
0.999768153451801
0.9997676194543172
0.9997670005536102
0.9997663032953611
0.9997655348023702
0.9997647027527665
0.9997638153555551
0.999762881323621
0.9997619098440043
0.9997609105453003
0.9997598934615585
0.9997588689919
0.9997578478545783
0.9997568410343547
0.999755859720242
0.9997549152294922
0.9997540189134948
0.9997531820552285
0.9997524157411597
0.9997517307099183
0.9997511371390851
0.9997506447459525
0.9997502625886443
0.9997500002898349
0.9997498676998887
0.999749877771775
0.9997500412313788
0
0
0.9996893738758841
0.9996891976792205
0.999688919809888
0.9996885483339026
0.9996880948277075
0.9996875707169979
0.9996869875681708
0.9996863569353769
0.9996856901358724
0.9996849981745317
0.9996842916223475
0.9996835804747634
0.9996828740770836
0.9996821810653852
0.9996815093388262
0.9996808660597754
0.9996802576731056
0.9996796899369458
0.9996791679616672
0.9996786962544671
0.9996782787664015
0.9996779189401738
0.9996776197570001
0.999677383781938
0.999677213206635
0.9996771098893519
0.9996770753916446
0.9996771110118527
0.999677217815012
0.9996773966594875
0.9996776482201006
0.9996779730081055
0.9996783713878867
0.9996788435907673
0.9996793897258512
0.9996800097882983
0.9996807036650014
0.9996814711380503
0.9996823118859832
0.9996832254832013
0.9996842113975664
0.9996852689865341
0.9996863974918735
0.9996875960333004
0.9996888636010833
0.9996901990479456
0.9996916010803283
0.9996930682493129
0.9996945989412935
0.9996961913686664
0.9996978435606503
0.9996995533544737
0.9997013183870576
0.9997031360874151
0.9997050036698938
0.999706918128465
0.999708876232193
0.9997108745220613
0.9997129093092855
0.999714976675267
0.9997170724733119
0.999719192332234
0.9997213316619562
0.999723485661192
0.9997256493273018
0.9997278174683666
0.9997299847175452
0.9997321455497036
0.9997342943003612
0.9997364251868818
0.9997385323319133
0.9997406097889511
0.9997426515699841
0.9997446516750327
0.9997466041235012
0.999748502987085
0.9997503424241125
0.9997521167150099
0.9997538202987156
0.9997554478096947
0.9997569941153369
0.9997584543533493
0.9997598239689128
0.9997610987511751
0.9997622748688456
0.999763348904461
0.9997643178870845
0.9997651793230288
0.9997659312243856
0.9997665721349809
0.9997671011535906
0.9997675179540791
0.9997678228023603
0.9997680165699124
0.9997681007438151
0.9997680774331219
0.9997679493716233
0.9997677199168818
0.9997673930456906
0.9997669733459029
0.9997664660048509
0.9997658767943531
0.9997652120525712
0.99976447866272
0.9997636840288703
0.9997628360487987
0.9997619430840146
0.9997610139267342
0.9997600577637079
0.9997590841363905
0.9997581028969807
0.9997571241591026
0.99975615824205
0.9997552156075787
0.9997543067889081
0.9997534423067757
0.9997526325744978
0.9997518877970617
0.9997512178961119
0.9997506324004032
0.9997501405369904
0.999749751296734
0.9997494739117015
0.999749317898271
0.9997492947504765
0.9997494127733835
0
0
0.9996903180054973
0.9996900382207115
0.9996896792105642
0.9996892470349326
0.9996887503909323
0.9996881980624758
0.9996875995562219
0.9996869644938757
0.9996863024295809
0.9996856227447601
0.9996849345052339
0.9996842463628461
0.9996835664701429
0.9996829024166938
0.9996822611967527
0.9996816491980596
0.999681072206004
0.9996805354209778
0.9996800434851886
0.9996796005157267
0.999679210140991
0.9996788755391472
0.9996785994767836
0.9996783843470629
0.9996782322061737
0.9996781448079151
0.9996781236356426
0.9996781699316952
0.9996782847237915
0.9996784688486738
0.9996787229726626
0.9996790476094806
0.9996794431351139
0.9996799098001146
0.9996804477391837
0.999681056978446
0.9996817374403129
0.9996824889463397
0.9996833112180071
0.9996842038758279
0.9996851664367332
0.9996861983101234
0.9996872987925657
0.9996884670614966
0.9996897021679424
0.9996910030285869
0.9996923684172248
0.9996937969559073
0.9996952871058331
0.9996968371582747
0.9996984452256081
0.9997001092327163
0.9997018269088445
0.9997035957801603
0.9997054131631073
0.9997072761587809
0.9997091816484268
0.9997111262902605
0.9997131065177159
0.9997151185392947
0.9997171583401173
0.9997192216853156
0.9997213041253676
0.9997234010034669
0.9997255074650143
0.999727618469285
0.999729728803333
0.9997318330981373
0.9997339258470141
0.9997360014262604
0.9997380541180042
0.9997400781351666
0.9997420676484798
0.9997440168153905
0.9997459198107579
0.9997477708591119
0.9997495642683337
0.9997512944644609
0.9997529560274484
0.9997545437275276
0.9997560525619572
0.9997574777917754
0.9997588149783123
0.999760060019054
0.9997612091825984
0.9997622591422856
0.9997632070082595
0.99976405035753
0.9997647872618421
0.9997654163129335
0.9997659366450353
0.999766347954248
0.9997666505147039
0.9997668451912132
0.9997669334483842
0.9997669173559811
0.9997667995905979
0.9997665834334896
0.9997662727647151
0.9997658720535078
0.9997653863450975
0.9997648212439407
0.9997641828936306
0.9997634779534523
0.9997627135718383
0.9997618973566511
0.9997610373424599
0.999760141954622
0.9997592199701403
0.9997582804748567
0.9997573328167727
0.9997563865548902
0.9997554514029593
0.999754537166854
0.9997536536765034
0.9997528107133438
0.9997520179345574
0.999751284791518
0.9997506204785372
0.9997500338997755
0.9997495337164497
0.9997491284433112
0.99974882667537
0.999748636731038
0.9997485684622077
0.999748628715062
0
0
0.9996913487610215
0.9996909596265793
0.9996905121685085
0.9996900108454773
0.9996894616709274
0.9996888714568856
0.9996882477757656
0.9996875984327789
0.999686931368356
0.9996862544647012
0.9996855754097366
0.9996849016003336
0.9996842400563927
0.999683597362
0.9996829796270715
0.9996823924665976
0.9996818409957945
0.9996813298382152
0.9996808631425834
0.999680444606305
0.9996800775031585
0.9996797647138347
0.9996795087573721
0.9996793118228777
0.9996791758002528
0.9996791023097517
0.9996790927294793
0.9996791482209498
0.9996792697520798
0.999679458117901
0.999679713958555
0.9996800377749313
0.999680429941641
0.9996808907177295
0.9996814202549021
0.9996820186036834
0.9996826857173422
0.9996834214540002
0.9996842255768059
0.9996850977525802
0.9996860375488417
0.9996870444296105
0.9996881177499294
0.9996892567494734
0.9996904605452164
0.9996917281235086
0.9996930583315529
0.9996944498686111
0.9996959012769551
0.9996974109328666
0.9996989770377273
0.9997005976094777
0.9997022704745007
0.9997039932601941
0.9997057633882985
0.9997075780692256
0.9997094342974588
0.9997113288482498
0.9997132582756929
0.9997152189123684
0.9997172068706368
0.9997192180457494
0.9997212481208443
0.9997232925739591
0.9997253466871182
0.9997274055575776
0.999729464111269
0.9997315171184725
0.9997335592117367
0.9997355849060114
0.9997375886209845
0.9997395647055218
0.9997415074641648
0.9997434111855203
0.9997452701724456
0.9997470787738104
0.9997488314176883
0.9997505226456949
0.9997521471482851
0.9997536998006763
0.9997551756991685
0.9997565701974797
0.9997578789428553
0.9997590979115268
0.9997602234432696
0.999761252274628
0.9997621815705549
0.9997630089540421
0.9997637325335204
0.9997643509276188
0.9997648632871171
0.9997652693137178
0.9997655692755398
0.9997657640190178
0.9997658549771855
0.9997658441740988
0.9997657342254627
0.9997655283352929
0.999765230288756
0.999764844441092
0.9997643757028355
0.999763829521283
0.9997632118584729
0.9997625291656476
0.9997617883544554
0.9997609967648414
0.999760162129828
0.9997592925370439
0.9997583963871147
0.9997574823486242
0.9997565593095734
0.9997556363249691
0.9997547225607579
0.9997538272338138
0.999752959548096
0.999752128628245
0.9997513434564934
0.9997506128128015
0.9997499452316302
0.9997493489854296
0.9997488320994312
0.9997484023528792
0.9997480675104162
0.9997478348034954
0.9997477120889845
0.999747705063306
0
0
0.9996924421340844
0.999691940536651
0.9996913998435457
0.9996908230381552
0.9996902141020185
0.9996895782147749
0.9996889211889874
0.9996882492545736
0.9996875688773382
0.9996868865596827
0.9996862087194682
0.99968554158521
0.9996848911136138
0.9996842629308229
0.999683662290082
0.9996830940469039
0.999682562648331
0.9996820721336415
0.9996816261435629
0.9996812279364994
0.9996808804091254
0.9996805861202323
0.999680347315967
0.9996801659559419
0.9996800437388591
0.9996799821275076
0.9996799823721658
0.9996800455325398
0.9996801724975309
0.9996803640031319
0.9996806206479116
0.9996809429065023
0.9996813311406564
0.9996817856083399
0.9996823064705299
0.9996828937961829
0.999683547565118
0.9996842676692815
0.9996850539121837
0.9996859060069645
0.9996868235729222
0.9996878061309389
0.9996888530976771
0.9996899637789572
0.999691137362224
0.9996923729084851
0.9996936693436607
0.9996950254497066
0.9996964398554715
0.9996979110276337
0.9996994372616963
0.999701016673367
0.9997026471903276
0.9997043265446887
0.9997060522661584
0.9997078216762004
0.9997096318832198
0.9997114797790257
0.999713362036628
0.9997152751095838
0.9997172152329534
0.999719178426051
0.9997211604970474
0.9997231570495761
0.9997251634913823
0.9997271750451261
0.9997291867613624
0.9997311935337533
0.999733190116517
0.9997351711441034
0.9997371311530695
0.999739064606083
0.9997409659179901
0.9997428294838033
0.9997446497085032
0.9997464210384468
0.9997481379942289
0.9997497952047198
0.9997513874420908
0.9997529096574874
0.9997543570171253
0.9997557249384219
0.9997570091259103
0.999758205606516
0.9997593107639332
0.9997603213716559
0.9997612346244141
0.9997620481675693
0.9997627601242436
0.9997633691197629
0.9997638743032303
0.999764275365848
0.9997645725558814
0.9997647666899273
0.9997648591604674
0.9997648519394381
0.9997647475778797
0.9997645492014812
0.9997642605021628
0.9997638857255853
0.9997634296548074
0.9997628975900318
0.9997622953247187
0.9997616291180361
0.9997609056639357
0.999760132056827
0.9997593157541171
0.9997584645355231
0.9997575864593804
0.9997566898158117
0.9997557830769619
0.9997548748440946
0.9997539737918604
0.9997530886101588
0.9997522279447015
0.999751400336696
0.9997506141655348
0.9997498775985061
0.9997491985505951
0.9997485846573859
0.9997480432799518
0.9997475814336997
0.9997472059179069
0.9997469229957184
0.9997467387775006
0.9997466577888934
0
0
0.9996935767797827
0.9996929614595487
0.9996923245061948
0.9996916677152293
0.9996909935810002
0.9996903058393033
0.9996896088211569
0.999688907386394
0.9996882066643681
0.9996875119085522
0.999686828371252
0.9996861611987395
0.9996855153527613
0.9996848955514973
0.9996843062266348
0.9996837514962502
0.9996832351497333
0.9996827606435188
0.9996823311049431
0.999681949342819
0.9996816178623162
0.9996813388833529
0.9996811143606457
0.9996809460050122
0.9996808353045173
0.9996807835454122
0.9996807918318243
0.9996808611043762
0.9996809921569378
0.9996811856518577
0.9996814421330479
0.9996817620373627
0.9996821457037757
0.9996825933808389
0.9996831052320236
0.9996836813394437
0.9996843217056345
0.9996850262538856
0.9996857948268506
0.9996866271839305
0.999687522997193
0.9996884818463042
0.9996895032122776
0.999690586470496
0.9996917308828424
0.9996929355893728
0.999694199599405
0.9996955217824227
0.9996969008587067
0.9996983353900705
0.9996998237706339
0.9997013642179904
0.9997029547647334
0.9997045932506717
0.9997062773157173
0.9997080043937578
0.9997097717075174
0.9997115762646861
0.9997134148553393
0.9997152840509047
0.9997171802046959
0.9997190994542425
0.9997210377254381
0.9997229907386964
0.9997249540171281
0.9997269228968843
0.9997288925396653
0.999730857947483
0.9997328139796612
0.9997347553720927
0.9997366767587094
0.9997385726951197
0.9997404376843304
0.999742266204437
0.9997440527381547
0.9997457918040067
0.9997474779889973
0.9997491059825097
0.9997506706112225
0.9997521668747179
0.9997535899815365
0.9997549353852989
0.9997561988206276
0.9997573763384421
0.9997584643403558
0.9997594596117199
0.9997603593530529
0.9997611612093968
0.9997618632973646
0.9997624642294419
0.9997629631353507
0.9997633596800779
0.9997636540784459
0.9997638471058831
0.9997639401053559
0.9997639349901843
0.9997638342428021
0.9997636409092572
0.9997633585896033
0.9997629914240604
0.9997625440751706
0.9997620217058945
0.999761429953943
0.999760774902321
0.9997600630464207
0.999759301257655
0.99975849674397
0.9997576570072235
0.9997567897977556
0.9997559030661062
0.9997550049122683
0.9997541035325523
0.9997532071645411
0.9997523240304272
0.9997514622801023
0.9997506299350647
0.9997498348348184
0.99974908458833
0.9997483865331157
0.9997477476926359
0.9997471747611935
0.9997466740363051
0.9997462514010106
0.9997459121734873
0.9997456611219643
0.9997455017237228
0
0
0.9996947337739648
0.9996940046776154
0.9996932697735378
0.9996925299752829
0.9996917866153989
0.9996910422164795
0.999690299884148
0.9996895632676466
0.9996888363123904
0.9996881231496754
0.9996874279658227
0.9996867549086624
0.999686108012267
0.999685491139446
0.9996849079395587
0.9996843618202556
0.9996838559301133
0.9996833931513021
0.9996829760995648
0.9996826071305539
0.9996822883503239
0.9996820216293821
0.9996818086184565
0.9996816507657396
0.9996815493341846
0.9996815054188944
0.9996815199634956
0.9996815937757529
0.99968172754155
0.9996819218376357
0.9996821771424386
0.9996824938454297
0.9996828722544645
0.9996833126016335
0.9996838150471404
0.9996843796817586
0.9996850065274585
0.9996856955367531
0.9996864465904092
0.9996872594940661
0.9996881339734566
0.9996890696687445
0.9996900661277248
0.999691122798377
0.999692239020551
0.9996934140172551
0.9996946468853641
0.9996959365861874
0.9996972819357486
0.999698681595204
0.9997001340612655
0.999701637657045
0.9997031905232147
0.9997047906098702
0.9997064356690242
0.9997081232480921
0.9997098506843196
0.9997116151004866
0.9997134134018602
0.9997152422746989
0.9997170981862918
0.9997189773868035
0.9997208759129115
0.9997227895934703
0.9997247140571844
0.9997266447424686
0.9997285769094805
0.9997305056544382
0.9997324259261907
0.9997343325450904
0.999736220224104
0.9997380835921471
0.9997399172195373
0.9997417156454749
0.999743473407411
0.9997451850721336
0.9997468452683795
0.9997484487207411
0.9997499902846247
0.9997514649819587
0.99975286803738
0.9997541949145281
0.9997554413521567
0.9997566033996406
0.9997576774515835
0.9997586602810691
0.9997595490712705
0.9997603414449606
0.9997610354916546
0.9997616297919492
0.9997621234388416
0.9997625160556217
0.9997628078101983
0.9997629994255036
0.9997630921859287
0.9997630879394991
0.9997629890958438
0.9997627986197489
0.9997625200204456
0.9997621573365032
0.9997617151165742
0.9997611983959294
0.9997606126691104
0.9997599638586904
0.9997592582805213
0.9997585026054991
0.9997577038182526
0.9997568691727956
0.9997560061455907
0.9997551223860806
0.9997542256651679
0.9997533238218145
0.9997524247084641
0.9997515361356161
0.999750665816528
0.9997498213130048
0.9997490099834203
0.999748238933023
0.9997475149697889
0.9997468445558988
0.999746233763146
0.9997456882207061
0.9997452130298304
0.9997448126584149
0.9997444908249326
0.9997442501913447
0
0
0.9996958962381046
0.9996950541044993
0.9996942205625021
0.9996933958545294
0.9996925803845965
0.9996917756915842
0.9996909838444422