# vtk DataFile Version 2.0
2D-ADE data file 
ASCII
DATASET RECTILINEAR_GRID
DIMENSIONS 128 128 1 
X_COORDINATES 128 int
0 1 2 3 4 5 6 7 8 9 10 11 12 13 14 15 16 17 18 19 20 21 22 23 24 25 26 27 28 29 30 31 32 33 34 35 36 37 38 39 40 41 42 43 44 45 46 47 48 49 50 51 52 53 54 55 56 57 58 59 60 61 62 63 64 65 66 67 68 69 70 71 72 73 74 75 76 77 78 79 80 81 82 83 84 85 86 87 88 89 90 91 92 93 94 95 96 97 98 99 100 101 102 103 104 105 106 107 108 109 110 111 112 113 114 115 116 117 118 119 120 121 122 123 124 125 126 127 
Y_COORDINATES 128 int
0 1 2 3 4 5 6 7 8 9 10 11 12 13 14 15 16 17 18 19 20 21 22 23 24 25 26 27 28 29 30 31 32 33 34 35 36 37 38 39 40 41 42 43 44 45 46 47 48 49 50 51 52 53 54 55 56 57 58 59 60 61 62 63 64 65 66 67 68 69 70 71 72 73 74 75 76 77 78 79 80 81 82 83 84 85 86 87 88 89 90 91 92 93 94 95 96 97 98 99 100 101 102 103 104 105 106 107 108 109 110 111 112 113 114 115 116 117 118 119 120 121 122 123 124 125 126 127 
Z_COORDINATES 1 int
0
POINT_DATA 16384
SCALARS density double
LOOKUP_TABLE default
0
0
0
0
0
0
0
0
0
0
0
0
0
0
0
0
0
0
0
0
0
0
0
0
0
0
0
0
0
0
0
0
0
0
0
0
0
0
0
0
0
0
0
0
0
0
0
0
0
0
0
0
0
0
0
0
0
0
0
0
0
0
0
0
0
0
0
0
0
0
0
0
0
0
0
0
0
0
0
0
0
0
0
0
0
0
0
0
0
0
0
0
0
0
0
0
0
0
0
0
0
0
0
0
0
0
0
0
0
0
0
0
0
0
0
0
0
0
0
0
0
0
0
0
0
0
0
0
0
0.9997229688273328
0.9997230630041513
0.9997229842685058
0.9997226878072887
0.9997222164179175
0.9997216122512036
0.9997209051902639
0.9997201210462832
0.9997192831334711
0.9997184116880075
0.9997175239265171
0.9997166345814564
0.9997157562818986
0.999714899828653
0.9997140744350709
0.9997132879454086
0.9997125470218704
0.9997118573038948
0.9997112235447637
0.9997106497292052
0.9997101391746728
0.9997096946187851
0.9997093182950566
0.9997090119986465
0.9997087771435339
0.9997086148122616
0.9997085257991822
0.9997085106479909
0.9997085696841863
0.9997087030430175
0.9997089106933896
0.99970919245815
0.9997095480311136
0.9997099769911625
0.9997104788137153
0.9997110528798303
0.9997116984831872
0.9997124148351803
0.9997132010683117
0.999714056238097
0.9997149793236415
0.9997159692270654
0.9997170247719199
0.9997181447007505
0.9997193276719326
0.9997205722559133
0.9997218769309777
0.9997232400786573
0.9997246599788873
0.9997261348050205
0.9997276626187979
0.9997292413653741
0.9997308688684914
0.9997325428258912
0.9997342608050601
0.9997360202393849
0.9997378184248105
0.9997396525170799
0.9997415195296301
0.9997434163322302
0.9997453396504273
0.9997472860658766
0.9997492520176205
0.9997512338043814
0.9997532275879275
0.9997552293975642
0.9997572351358026
0.9997592405852407
0.9997612414167015
0.9997632331986431
0.9997652114078727
0.9997671714415566
0.9997691086305414
0.9997710182539656
0.9997728955551367
0.9997747357586447
0.9997765340886635
0.999778285788379
0.9997799861404761
0.9997816304885999
0.9997832142596941
0.999784732987119
0.9997861823344246
0.9997875581196574
0.9997888563400726
0.9997900731971043
0.9997912051214612
0.9997922487981938
0.9997932011915974
0.9997940595698019
0.9997948215289222
0.9997954850166364
0.9997960483550915
0.9997965102630281
0.9997968698770684
0.9997971267721113
0.9997972809808268
0.9997973330122741
0.9997972838697124
0.9997971350677265
0.9997968886488549
0.9997965471999701
0.9997961138687622
0.9997955923807635
0.9997949870574887
0.9997943028363986
0.9997935452935864
0.9997927206702847
0.9997918359045418
0.9997908986697116
0.9997899174217412
0.9997889014575064
0.9997878609864149
0.999786807218221
0.9997857524712251
0.9997847103039387
0.99978369565648
0.9997827250068515
0.9997818166038248
0.9997809908585202
0.9997802701694646
0.9997796779381618
0.9997792392430219
0.999778989385644
0.9997789601898269
0.9997790907882694
0
0
0.9997230121187246
0.9997230518791221
0.9997229447286544
0.9997226719860207
0.9997222591897794
0.9997217247690161
0.9997210940395619
0.9997203899990725
0.9997196331618258
0.9997188414521726
0.9997180307325755
0.9997172148672593
0.9997164059022826
0.9997156142657468
0.9997148489665107
0.999714117763941
0.9997134273198603
0.9997127833337104
0.9997121906619373
0.9997116534225615
0.9997111750867503
0.9997107585590126
0.9997104062474373
0.9997101201252352
0.9997099017846492
0.9997097524841606
0.9997096731897572
0.9997096646109365
0.9997097272319931
0.9997098613390932
0.999710067043556
0.9997103443017228
0.9997106929317443
0.9997111126275973
0.9997116029705976
0.9997121634386595
0.9997127934135328
0.9997134921862293
0.9997142589608259
0.9997150928568336
0.9997159929102944
0.9997169580737668
0.9997179872153417
0.9997190791168314
0.9997202324712605
0.9997214458797786
0.9997227178481128
0.9997240467826751
0.9997254309864221
0.9997268686545774
0.9997283578703063
0.9997298966004448
0.9997314826913638
0.9997331138650705
0.999734787715617
0.9997365017059117
0.9997382531650072
0.9997400392859472
0.999741857124243
0.9997437035970617
0.9997455754831872
0.9997474694238266
0.9997493819243274
0.9997513093568622
0.9997532479641333
0.999755193864159
0.9997571430561756
0.9997590914276931
0.9997610347627496
0.9997629687513689
0.999764889000253
0.9997667910447057
0.9997686703617895
0.9997705223847019
0.9997723425183398
0.9997741261560302
0.999775868697368
0.9997775655671075
0.9997792122350428
0.9997808042367883
0.9997823371953733
0.9997838068435463
0.9997852090466831
0.9997865398261678
0.9997877953831366
0.9997889721224347
0.9997900666766671
0.9997910759301958
0.999791997042948
0.9997928274739092
0.9997935650041654
0.9997942077593851
0.9997947542316333
0.999795203300429
0.9997955542529822
0.9997958068035668
0.999795961112015
0.9997960178013631
0.9997959779747027
0.9997958432313555
0.9997956156825387
0.9997952979667399
0.9997948932651213
0.9997944053173294
0.999793838438203
0.9997931975359785
0.9997924881327226
0.9997917163878642
0.9997908891258537
0.9997900138691107
0.9997890988775583
0.9997881531961099
0.9997871867116178
0.9997862102197488
0.9997852355017397
0.9997842754102393
0.9997833439733029
0.9997824564886904
0.9997816295769941
0.9997808810831368
0.9997802303676329
0.9997796980018562
0.9997793051790224
0.9997790644232756
0.999778990554955
0.9997790552145384
0
0
0.9997231685022849
0.9997231757398773
0.9997230485418409
0.9997227883547692
0.9997224063386608
0.9997219163272435
0.9997213403403038
0.9997206970307374
0.9997200037251307
0.9997192763289473
0.9997185292635408
0.9997177752839075
0.9997170256369526
0.999716290202933
0.9997155776245992
0.9997148954274199
0.9997142501397861
0.9997136474039499
0.9997130920762505
0.9997125883170022
0.9997121396709592
0.9997117491389708
0.999711419241572
0.999711152075311
0.9997109493625442
0.99971081249538
0.9997107425743519
0.9997107404423553
0.999710806714306
0.9997109418029345
0.9997111459410831
0.9997114192008408
0.999711761509802
0.9997121726647353
0.9997126523428974
0.9997132001112298
0.9997138154336392
0.9997144976765701
0.9997152461130308
0.9997160599252655
0.9997169382062041
0.999717879959865
0.9997188841008221
0.9997199494528914
0.9997210747471414
0.999722258619358
0.999723499607066
0.9997247961462201
0.9997261465676616
0.9997275490934413
0.9997290018331007
0.9997305027800043
0.9997320498078056
0.999733640667139
0.9997352729826092
0.9997369442501729
0.9997386518349711
0.9997403929697077
0.9997421647536311
0.9997439641521956
0.9997457879974715
0.9997476329893655
0.9997494956977112
0.9997513725652893
0.9997532599118287
0.9997551539390355
0.9997570507366899
0.9997589462898538
0.9997608364872076
0.9997627171305451
0.9997645839454384
0.9997664325930747
0.9997682586832629
0.9997700577885924
0.9997718254597253
0.9997735572417786
0.9997752486917557
0.9997768953969677
0.9997784929943775
0.9997800371907893
0.9997815237837879
0.9997829486833401
0.9997843079339395
0.9997855977371883
0.9997868144746888
0.9997879547311174
0.9997890153173568
0.9997899932935475
0.9997908859919311
0.9997916910393577
0.9997924063793364
0.9997930302935136
0.9997935614224788
0.9997939987858162
0.9997943418013329
0.9997945903034159
0.999794744560511
0.9997948052917284
0.9997947736826351
0.9997946514003194
0.9997944406078721
0.9997941439784767
0.9997937647093615
0.9997933065359348
0.999792773746496
0.9997921711979966
0.9997915043334026
0.999790779201296
0.999790002478422
0.9997891814959142
0.9997883242698835
0.9997874395367904
0.9997865367942963
0.9997856263476427
0.9997847193595891
0.9997838278932972
0.9997829649552358
0.9997821445425256
0.9997813816947743
0.9997806921796113
0.999780092245416
0.9997795984515936
0.9997792295395529
0.9997789946652287
0.9997788968415234
0.999778932407547
0
0
0.9997234527099083
0.9997234361036624
0.9997232877012371
0.9997230176108464
0.9997226433481999
0.9997221788059745
0.9997216389180985
0.9997210384770943
0.9997203926854874
0.9997197155156672
0.9997190196733552
0.9997183166540089
0.9997176167995356
0.999716929313041
0.9997162623338586
0.9997156230282112
0.9997150176788604
0.9997144517693247
0.9997139300642152
0.9997134566841634
0.999713035174449
0.9997126685672177
0.9997123594376018
0.9997121099541069
0.9997119219236488
0.9997117968316647
0.9997117358776864
0.9997117400067725
0.9997118099371415
0.999711946184341
0.9997121490822443
0.9997124188011659
0.9997127553633312
0.99971315865596
0.9997136284421593
0.9997141643698507
0.999714765978907
0.9997154327066835
0.9997161638921073
0.999716958778483
0.9997178165151561
0.9997187361581787
0.9997197166701014
0.9997207569190193
0.9997218556769852
0.9997230116179056
0.9997242233150141
0.9997254892380419
0.9997268077501615
0.9997281771048113
0.9997295954424825
0.9997310607875625
0.9997325710453069
0.9997341239990359
0.999735717307618
0.9997373485033343
0.9997390149901825
0.9997407140427035
0.9997424428053935
0.9997441982927738
0.9997459773901785
0.9997477768553246
0.99974959332072
0.9997514232969655
0.9997532631770001
0.999755109241331
0.9997569576642941
0.9997588045213726
0.9997606457976043
0.9997624773970939
0.9997642951536437
0.9997660948425076
0.9997678721932565
0.9997696229037472
0.999771342655166
0.9997730271281078
0.9997746720196541
0.9997762730613823
0.9997778260382494
0.9997793268082669
0.9997807713228798
0.9997821556479589
0.9997834759852938
0.9997847286944814
0.9997859103150843
0.9997870175889433
0.999788047482509
0.9997889972090718
0.9997898642507544
0.999790646380149
0.9997913416814757
0.9997919485711505
0.9997924658176692
0.9997928925607018
0.9997932283293575
0.9997934730595395
0.9997936271103887
0.999793691279803
0.9997936668190764
0.9997935554467187
0.9997933593615709
0.9997930812553557
0.9997927243248779
0.9997922922840964
0.99979178937638
0.9997912203872761
0.9997905906581815
0.9997899061013065
0.9997891732163268
0.9997883991090631
0.9997875915125057
0.999786758810038
0.9997859100598901
0.9997850550190628
0.9997842041681901
0.9997833687331941
0.999782560686026
0.9997817926771282
0.9997810780039357
0.9997804305923178
0.9997798648756449
0.9997793940254854
0.9997790303854232
0.9997787848034355
0.9997786722076384
0.9997786990706777
0
0
0.9997238815457558
0.9997238109913448
0.9997236251260208
0.9997233355047008
0.9997229574317712
0.9997225022102206
0.9997219819769161
0.9997214096243562
0.9997207978110552
0.9997201583749821
0.9997195024643731
0.9997188403683492
0.99971818143966
0.9997175341036363
0.9997169059087838
0.9997163035763337
0.9997157330571448
0.9997151995938623
0.9997147077836281
0.999714261638064
0.9997138646397531
0.999713519794807
0.9997132296812173
0.9997129964929304
0.9997128220797331
0.9997127079831561
0.9997126554685998
0.999712665553938
0.9997127390348253
0.9997128765069647
0.9997130783855498
0.999713344922124
0.9997136762190433
0.9997140722417631
0.999714532829123
0.9997150577018233
0.9997156464692412
0.9997162986347694
0.9997170135998023
0.9997177906665428
0.9997186290397266
0.9997195278274317
0.999720486041056
0.9997215025946125
0.9997225763034183
0.9997237058823149
0.9997248899434862
0.9997261269939997
0.9997274154331389
0.9997287535496345
0.9997301395188585
0.9997315714000886
0.9997330471338992
0.9997345645397748
0.9997361213140051
0.9997377150279547
0.999739343126758
0.9997410029285211
0.9997426916240949
0.9997444062774835
0.9997461438269464
0.999747901086859
0.9997496747503823
0.9997514613929964
0.9997532574769412
0.9997550593566148
0.9997568632849534
0.9997586654208447
0.9997604618375757
0.9997622485323552
0.999764021436905
0.999765776429133
0.9997675093458721
0.9997692159966783
0.999770892178657
0.9997725336922834
0.9997741363581689
0.999775696034725
0.9997772086366504
0.9997786701541698
0.9997800766729373
0.9997814243945118
0.9997827096572979
0.9997839289578448
0.9997850789723847
0.9997861565784868
0.9997871588767117
0.999788083212121
0.9997889271955377
0.9997896887244088
0.9997903660031753
0.9997909575630136
0.9997914622808641
0.9997918793976407
0.9997922085355571
0.999792449714505
0.9997926033674498
0.9997926703548289
0.999792651977964
0.9997925499915328
0.9997923666151681
0.9997921045442876
0.9997917669602984
0.9997913575403321
0.9997908804667196
0.9997903404364031
0.9997897426705196
0.9997890929243423
0.9997883974977453
0.9997876632461385
0.9997868975916732
0.9997861085343689
0.9997853046625834
0.9997844951596297
0.9997836898019213
0.9997828989470587
0.9997821335221555
0.9997814049696274
0.9997807251030797
0.9997801058782848
0.9997795595174142
0.9997790979165116
0.9997787316531433
0.9997784699623388
0.9997783280317196
0.999778316347135
0
0
0.9997244268046473
0.9997242840482783
0.9997240485335264
0.9997237286105107
0.9997233340607099
0.9997228748281778
0.999722361630328
0.9997218049649484
0.999721215155859
0.9997206023724661
0.9997199763248054
0.9997193460445131
0.9997187198625572
0.9997181053995897
0.9997175095624938
0.999716938562943
0.999716397954674
0.9997158926765821
0.9997154270977712
0.9997150050633457
0.9997146299395511
0.9997143046569776
0.9997140317511153
0.9997138134000034
0.9997136514588059
0.9997135474913187
0.9997135027984385
0.9997135184437256
0.9997135952761753
0.9997137339503805
0.9997139349442238
0.9997141985742908
0.9997145250091453
0.9997149142806544
0.9997153662934937
0.9997158808330195
0.9997164575716142
0.9997170960736872
0.999717795799425
0.9997185561074579
0.9997193762565294
0.9997202554063169
0.999721192617486
0.9997221868511131
0.99972323696755
0.9997243417248546
0.999725499776856
0.9997267096709669
0.999727969845808
0.9997292786287506
0.9997306342334336
0.9997320347573562
0.9997334781796049
0.999734962358803
0.9997364850313374
0.9997380438099557
0.9997396361827766
0.999741259512802
0.9997429110379774
0.9997445878718773
0.9997462870050601
0.9997480053071642
0.9997497395297834
0.9997514863101862
0.9997532421759104
0.9997550035502868
0.9997567667589162
0.9997585280371423
0.9997602835385305
0.9997620293443836
0.9997637614742932
0.999765475897735
0.9997671685466952
0.9997688353293189
0.9997704721445497
0.9997720748977282
0.9997736395171004
0.9997751619711885
0.9997766382869464
0.9997780645686378
0.999779437017346
0.9997807519510182
0.9997820058249487
0.9997831952525889
0.9997843170265636
0.999785368139782
0.9997863458065076
0.9997872474832676
0.9997880708894699
0.9997888140276028
0.9997894752028992
0.9997900530423375
0.9997905465128891
0.9997909549388939
0.9997912780184994
0.9997915158390764
0.9997916688915747
0.999791738083772
0.99979172475242
0.9997916306742841
0.9997914580761308
0.9997912096436934
0.9997908885297274
0.9997904983612164
0.9997900432458637
0.9997895277779436
0.9997889570436115
0.9997883366256661
0.9997876726077416
0.9997869715777229
0.9997862406299055
0.9997854873647373
0.9997847198851187
0.999783946788539
0.9997831771519435
0.9997824204965703
0.9997816867310015
0.9997809860934253
0.9997803290936351
0.9997797262544141
0.9997791877924215
0.9997787236928835
0.9997783440922163
0.999778058022023
0.9997778752004308
0.9997778041246483
0
0
0.9997250574630475
0.9997248352946639
0.9997245412614072
0.9997241803665509
0.9997237593219218
0.9997232862553899
0.9997227696341046
0.9997222179853301
0.9997216400238306
0.9997210443672468
0.999720439284222
0.9997198326238639
0.9997192317452205
0.999718643453563
0.9997180739808582
0.9997175289923748
0.9997170136034709
0.9997165324037677
0.9997160894876972
0.999715688488307
0.999715332611887
0.9997150246722152
0.9997147671236472
0.999714562092521
0.9997144114064727
0.9997143166215158
0.9997142790467757
0.9997142997669091
0.9997143796622177
0.9997145194265783
0.9997147195832435
0.9997149804986768
0.9997153023944999
0.9997156853577164
0.999716129349313
0.9997166342113867
0.9997171996728991
0.9997178253542087
0.9997185107704704
0.999719255334042
0.9997200583559832
0.9997209190467796
0.9997218365163646
0.9997228097735665
0.9997238377250458
0.9997249191738411
0.999726052817581
0.9997272372464792
0.9997284709411584
0.9997297522704196
0.9997310794889904
0.9997324507353721
0.9997338640298138
0.9997353172725247
0.9997368082421558
0.9997383345946531
0.9997398938625105
0.9997414834545263
0.9997431006560873
0.9997447426300683
0.9997464064183841
0.9997480889442658
0.9997497870152935
0.9997514973272571
0.9997532164688618
0.999754940927348
0.9997566670950293
0.9997583912768082
0.9997601096986662
0.9997618185171658
0.9997635138299558
0.9997651916872995
0.9997668481045977
0.9997684790759129
0.9997700805884486
0.9997716486379679
0.999773179245086
0.999774668472403
0.999776112442396
0.9997775073560016
0.9997788495118082
0.9997801353257566
0.9997813613512534
0.9997825242995827
0.9997836210605054
0.9997846487229155
0.9997856045954381
0.9997864862268279
0.9997872914260499
0.999788018281903
0.9997886651820702
0.9997892308314591
0.9997897142697381
0.9997901148879377
0.9997904324440486
0.999790667077505
0.9997908193225138
0.9997908901201514
0.9997908808292175
0.999790793235804
0.9997906295616018
0.9997903924709326
0.9997900850765576
0.999789710944266
0.9997892740962886
0.9997887790135191
0.999788230636543
0.9997876343653247
0.9997869960573584
0.9997863220238454
0.9997856190234513
0.999784894252725
0.9997841553312298
0.9997834102787718
0.9997826674849817
0.9997819356699669
0.9997812238213095
0.9997805410899184
0.9997798966947995
0.9997792998478019
0.9997787595230911
0.9997782841713136
0.999777882138192
0.9997775614588345
0.9997773289356289
0.9997771898206363
0
0
0.9997257492879764
0.9997254446414536
0.999725085994866
0.9997246766039712
0.9997242212895437
0.9997237259775743
0.9997231971537192
0.9997226418256866
0.9997220671909323
0.999721480398793
0.9997208884637518
0.9997202981562147
0.9997197158876233
0.9997191476553217
0.9997185990170857
0.9997180750774377
0.9997175804873693
0.9997171194562288
0.9997166957706702
0.9997163128174701
0.9997159736086574
0.9997156808077541
0.99971543675599
0.9997152434977877
0.9997151028050176
0.9997150161997601
0.9997149849753512
0.9997150102156502
0.9997150928124607
0.9997152334811572
0.9997154327745228
0.9997156910949112
0.9997160087047717
0.9997163857356732
0.9997168221958891
0.9997173179766841
0.999717872857365
0.9997184865092466
0.999719158498589
0.9997198882886481
0.9997206752409004
0.9997215186155737
0.999722417571538
0.9997233711656843
0.9997243783518394
0.9997254379793378
0.9997265487912942
0.9997277094226914
0.9997289183983222
0.9997301741306988
0.9997314749179594
0.9997328189418827
0.9997342042660428
0.9997356288342029
0.999737090468984
0.9997385868709027
0.9997401156178037
0.9997416741647952
0.9997432598446929
0.9997448698690802
0.9997465013300006
0.999748151202364
0.9997498163470914
0.9997514935150719
0.9997531793519466
0.9997548704037862
0.99975656312367
0.999758253879218
0.9997599389610802
0.9997616145924165
0.999763276939356
0.9997649221224614
0.9997665462291683
0.9997681453271974
0.9997697154789124
0.9997712527565874
0.999772753258535
0.9997742131260519
0.9997756285611036
0.9997769958446843
0.9997783113557615
0.9997795715907136
0.9997807731831584
0.9997819129240567
0.999782987781983
0.9997839949234288
0.999784931733018
0.9997857958334944
0.9997865851053578
0.999787297706003
0.9997879320882394
0.9997884870180556
0.9997889615915097
0.9997893552506244
0.9997896677981891
0.9997898994113568
0.9997900506539693
0.999790122487519
0.9997901162807069
0.9997900338175326
0.9997898773039002
0.999789649372687
0.9997893530872841
0.9997889919435463
0.9997885698701441
0.9997880912272115
0.9997875608031989
0.9997869838097078
0.9997863658740472
0.9997857130289539
0.9997850316987367
0.999784328680998
0.99978361112311
0.9997828864909021
0.9997821625254518
0.9997814471884033
0.9997807486010581
0.9997800749598316
0.9997794344003303
0.9997788348843657
0.9997782841638152
0.9997777895747036
0.99977735778117
0.9997769949175956
0.9997767062049518
0.9997764951453394
0
0
0.9997264819974848
0.9997260931458126
0.9997256662760264
0.9997252035414588
0.9997247079303054
0.9997241836394521
0.9997236356405946
0.9997230694857964
0.9997224909625677
0.9997219059825954
0.9997213204456923
0.9997207401028998
0.9997201704718057
0.9997196167820972
0.9997190839315582
0.9997185764611696
0.9997180985467569
0.999717654000674
0.9997172462802526
0.9997168785015856
0.9997165534567937
0.9997162736332079
0.999716041233327
0.999715858194872
0.99971572621032
0.9997156467455807
0.9997156210574829
0.9997156502099727
0.9997157350888666
0.9997158764151761
0.9997160747569576
0.9997163305397538
0.999716644055637
0.9997170154709704
0.9997174448328968
0.9997179320747085
0.9997184770201115
0.9997190793865391
0.9997197387875395
0.9997204547343871
0.9997212266369413
0.9997220538039016
0.9997229354424776
0.9997238706576189
0.9997248584508194
0.9997258977186383
0.9997269872509451
0.9997281257290251
0.999729311723562
0.9997305436926069
0.9997318199795702
0.9997331388113321
0.999734498296503
0.9997358964239338
0.9997373310615005
0.9997387999552619
0.9997403007290132
0.9997418308843312
0.9997433878011294
0.9997449687388213
0.9997465708380993
0.9997481911234259
0.9997498265062477
0.9997514737890065
0.9997531296699668
0.9997547907489241
0.9997564535337942
0.9997581144481499
0.9997597698396897
0.9997614159896936
0.999763049123433
0.9997646654215807
0.9997662610325748
0.9997678320859498
0.9997693747065916
0.9997708850298953
0.9997723592177702
0.9997737934754491
0.9997751840690244
0.9997765273436464
0.9997778197422936
0.9997790578250231
0.9997802382885911
0.99978135798634
0.999782413948225
0.9997834034008537
0.999784323787415
0.9997851727873432
0.9997859483356041
0.9997866486414325
0.9997872722064131
0.9997878178417382
0.9997882846845374
0.9997886722131214
0.9997889802610547
0.9997892090299084
0.9997893591006266
0.9997894314433812
0.9997894274258615
0.999789348819902
0.9997891978064067
0.9997889769784742
0.9997886893427023
0.9997883383185519
0.9997879277357257
0.9997874618293902
0.9997869452331052
0.9997863829691477
0.9997857804359185
0.9997851433919296
0.9997844779357146
0.9997837904804583
0.9997830877222806
0.9997823766016456
0.999781664255938
0.9997809579576131
0.9997802650379519
0.9997795928092169
0.9997789484686606
0.9997783389569072
0.9997777708463255
0.9997772502926082
0.9997767827247573
0.9997763726963385
0.9997760237048606
0.9997757382296358
0
0
0.9997272374293117
0.9997267642496656
0.9997262674176434
0.999725748094997
0.9997252077750731
0.9997246494136919
0.999724076673581
0.9997234938036249
0.9997229054035425
0.9997223162944339
0.9997217313505052
0.9997211553966352
0.9997205931302173
0.9997200490536673
0.999719527426873
0.9997190322392682
0.9997185671934423
0.9997181356981475
0.9997177408692972
0.9997173855367797
0.9997170722550032
0.999716803315946
0.9997165807636672
0.9997164064095234
0.9997162818473997
0.9997162084685919
0.9997161874759521
0.9997162198971564
0.9997163065968832
0.9997164482878894
0.9997166455408814
0.9997168987932399
0.999717208356559
0.9997175744230979
0.99971799707114
0.9997184762693772
0.9997190118803353
0.9997196036629622
0.9997202512744019
0.9997209542710903
0.9997217121091772
0.9997225241444282
0.9997233896316045
0.9997243077234614
0.9997252774693748
0.999726297813729
0.9997273675940674
0.9997284855391412
0.9997296502668523
0.9997308602822278
0.9997321139754105
0.9997334096198093
0.9997347453703906
0.999736119262245
0.9997375292094208
0.9997389730041446
0.9997404483164299
0.9997419526941844
0.9997434835638138
0.9997450382314392
0.9997466138847168
0.9997482075953674
0.9997498163224133
0.999751436916215
0.9997530661233041
0.9997547005920939
0.9997563368794584
0.9997579714582527
0.9997596007257532
0.9997612210130771
0.9997628285955504
0.9997644197040655
0.9997659905373835
0.9997675372754071
0.9997690560933578
0.9997705431768618
0.9997719947378699
0.9997734070313817
0.9997747763728856
0.9997760991564606
0.9997773718734363
0.9997785911315291
0.9997797536743359
0.9997808564010814
0.9997818963864868
0.9997828709006377
0.9997837774287058
0.9997846136903892
0.9997853776589266
0.9997860675795303
0.9997866819871024
0.9997872197230765
0.9997876799512494
0.9997880621724583
0.999788366237977
0.9997885923614915
0.9997887411295566
0.9997888135103937
0.9997888108609613
0.9997887349321629
0.9997885878721429
0.9997883722275278
0.9997880909425756
0.9997877473560651
0.9997873451958537
0.999786888570886
0.9997863819604944
0.9997858302006671
0.999785238466925
0.9997846122532569
0.9997839573465999
0.9997832797960794
0.9997825858757239
0.9997818820392355
0.9997811748669422
0.9997804710042473
0.9997797770847886
0.9997790996399815
0.9997784450105037
0.9997778192461014
0.9997772279432912
0.9997766761493597
0.999776168185832
0.9997757075185336
0.9997752961339685
0.999774935567286
0
0
0.9997279997300107
0.9997274433378175
0.9997268760148346
0.9997262981062273
0.9997257100754389
0.9997251138608586
0.9997245120062328
0.9997239076940623
0.9997233045047096
0.999722706278785
0.9997221169792471
0.9997215406011082
0.9997209810847131
0.9997204422511237
0.9997199277566178
0.999719441059792
0.9997189853994191
0.9997185637825119
0.9997181789798842
0.999717833527178
0.9997175297299387
0.9997172696716476
0.9997170552235904
0.999716888055825
0.9997167696485764
0.9997167013036825
0.9997166841556676
0.9997167191822676
0.9997168072141764
0.9997169489439571
0.999717144933999
0.9997173956235523
0.9997177013347676
0.9997180622778368
0.9997184785551889
0.9997189501648686
0.9997194770030656
0.999720058865942
0.9997206954507323
0.9997213863562656
0.9997221310828956
0.9997229290319826
0.9997237795049163
0.9997246817018247
0.9997256347199501
0.999726637551842
0.9997276890833436
0.9997287880915184
0.9997299332424927
0.9997311230893593
0.9997323560701157
0.9997336305057798
0.9997349445986583
0.9997362964309029
0.9997376839633377
0.9997391050346837
0.9997405573611653
0.999742038536625
0.9997435460331309
0.9997450772021932
0.9997466292765792
0.9997481993728429
0.9997497844945423
0.9997513815362675
0.9997529872884455
0.9997545984430305
0.999756211600048
0.9997578232750832
0.9997594299076796
0.9997610278707201
0.9997626134807499
0.9997641830092903
0.999765732695094
0.9997672587573753
0.9997687574099404
0.9997702248762327
0.9997716574052071
0.9997730512880153
0.9997744028754051
0.9997757085957804
0.99977696497382
0.9997781686495659
0.9997793163978669
0.9997804051480625
0.9997814320037798
0.9997823942627061
0.9997832894362004
0.9997841152685873
0.9997848697559932
0.9997855511645553
0.9997861580478622
0.9997866892634567
0.999787143988256
0.9997875217327266
0.999787822353687
0.9997880460655678
0.9997881934500268
0.999788265463755
0.9997882634443933
0.9997881891143933
0.9997880445827608
0.9997878323445138
0.9997875552777884
0.9997872166384084
0.9997868200518238
0.9997863695021739
0.9997858693183098
0.9997853241564317
0.999784738979058
0.9997841190297825
0.9997834698032703
0.9997827970098402
0.9997821065341156
0.9997814043864313
0.9997806966454743
0.9997799893930822
0.9997792886414012
0.9997786002464831
0.9997779298069239
0.9997772825724319
0.9997766633125255
0.9997760761860259
0.9997755245373516
0.9997750109481471
0.9997745363711789
0.9997741015317153
0
0
0.9997287552569689
0.9997281174799083
0.9997274799771612
0.999726842515951
0.9997262048309659
0.9997255680122236
0.9997249337103488
0.9997243042233394
0.9997236822441135
0.9997230707596627
0.9997224729318809
0.9997218920061656
0.999721331230742
0.999720793798386
0.9997202827994921
0.9997198011868935
0.9997193517517345
0.9997189371081262
0.9997185596844123
0.9997182217199367
0.9997179252659484
0.9997176721895477
0.9997174641796411
0.9997173027542925
0.9997171892687743
0.9997171249239659
0.9997171107746406
0.9997171477374862
0.9997172365985766
0.9997173780202548
0.9997175725472558
0.9997178206121113
0.999718122539722
0.9997184785512037
0.9997188887669176
0.9997193532088281
0.9997198718021172
0.9997204443762118
0.9997210706651743
0.9997217503076105
0.9997224828460513
0.9997232677259706
0.999724104294397
0.999724991798271
0.9997259293825187
0.9997269160879887
0.9997279508492173
0.9997290324921705
0.9997301597319298
0.9997313311704648
0.9997325452944574
0.9997338004733292
0.9997350949574239
0.9997364268765019
0.9997377942385008
0.9997391949287131
0.9997406267093372
0.9997420872195516
0.9997435739760706
0.999745084374321
0.9997466156902076
0.9997481650825975
0.9997497295964887
0.9997513061669878
0.9997528916240646
0.9997544826981908
0.9997560760268307
0.9997576681618815
0.9997592555780199
0.9997608346820398
0.9997624018231265
0.9997639533041385
0.9997654853938257
0.9997669943400355
0.9997684763838219
0.9997699277744814
0.999771344785422
0.9997727237308517
0.999774060983187
0.9997753529911314
0.9997765962983112
0.9997777875623862
0.9997789235745119
0.9997800012790399
0.9997810177933177
0.9997819704274553
0.9997828567039029
0.9997836743766897
0.9997844214501663
0.9997850961970762
0.9997856971758073
0.9997862232466371
0.9997866735868264
0.999787047704373
0.9997873454502978
0.999787567029267
0.9997877130084458
0.9997877843243929
0.999787782287902
0.9997877085866121
0.9997875652852998
0.9997873548236732
0.999787080011588
0.9997867440214774
0.9997863503778984
0.9997859029439455
0.9997854059043733
0.9997848637450855
0.9997842812287367
0.9997836633660038
0.9997830153821325
0.9997823426780316
0.999781650785468
0.9997809453159964
0.9997802319026283
0.9997795161328408
0.9997788034740402
0.99977809919359
0.9997774082618335
0.9997767352514115
0.9997760842199626
0.9997754586132453
0.9997748610151744
0.9997742932668674
0.9997737556244328
0.9997732482474615
0
0
0.9997294922030658
0.9997287752423913
0.9997280684691592
0.9997273712486573
0.9997266827661413
0.9997260034454528
0.9997253342261682