# vtk DataFile Version 2.0
2D-ADE data file 
ASCII
DATASET RECTILINEAR_GRID
DIMENSIONS 128 128 1 
X_COORDINATES 128 int
0 1 2 3 4 5 6 7 8 9 10 11 12 13 14 15 16 17 18 19 20 21 22 23 24 25 26 27 28 29 30 31 32 33 34 35 36 37 38 39 40 41 42 43 44 45 46 47 48 49 50 51 52 53 54 55 56 57 58 59 60 61 62 63 64 65 66 67 68 69 70 71 72 73 74 75 76 77 78 79 80 81 82 83 84 85 86 87 88 89 90 91 92 93 94 95 96 97 98 99 100 101 102 103 104 105 106 107 108 109 110 111 112 113 114 115 116 117 118 119 120 121 122 123 124 125 126 127 
Y_COORDINATES 128 int
0 1 2 3 4 5 6 7 8 9 10 11 12 13 14 15 16 17 18 19 20 21 22 23 24 25 26 27 28 29 30 31 32 33 34 35 36 37 38 39 40 41 42 43 44 45 46 47 48 49 50 51 52 53 54 55 56 57 58 59 60 61 62 63 64 65 66 67 68 69 70 71 72 73 74 75 76 77 78 79 80 81 82 83 84 85 86 87 88 89 90 91 92 93 94 95 96 97 98 99 100 101 102 103 104 105 106 107 108 109 110 111 112 113 114 115 116 117 118 119 120 121 122 123 124 125 126 127 
Z_COORDINATES 1 int
0
POINT_DATA 16384
SCALARS density double
LOOKUP_TABLE default
0
0
0
0
0
0
0
0
0
0
0
0
0
0
0
0
0
0
0
0
0
0
0
0
0
0
0
0
0
0
0
0
0
0
0
0
0
0
0
0
0
0
0
0
0
0
0
0
0
0
0
0
0
0
0
0
0
0
0
0
0
0
0
0
0
0
0
0
0
0
0
0
0
0
0
0
0
0
0
0
0
0
0
0
0
0
0
0
0
0
0
0
0
0
0
0
0
0
0
0
0
0
0
0
0
0
0
0
0
0
0
0
0
0
0
0
0
0
0
0
0
0
0
0
0
0
0
0
0
0.9996902863319732
0.9996903228007981
0.9996902183887894
0.9996899331753935
0.9996894699989967
0.999688864190414
0.9996881486016568
0.9996873509577634
0.9996864957445512
0.999685604849996
0.9996846973209766
0.9996837895941411
0.9996828958385572
0.9996820282531689
0.9996811973052873
0.999680411945954
0.9996796798022467
0.9996790073459767
0.9996784000409029
0.9996778624718763
0.999677398458278
0.9996770111536962
0.9996767031334971
0.9996764764717548
0.9996763328087492
0.9996762734100731
0.9996762992182221
0.999676410897443
0.9996766088724843
0.9996768933618433
0.9996772644060072
0.999677721891159
0.9996782655687456
0.9996788950712943
0.9996796099248051
0.9996804095580522
0.9996812933090684
0.9996822604291034
0.9996833100843001
0.999684441355343
0.9996856532353002
0.9996869446258895
0.999688314332373
0.9996897610572861
0.9996912833931995
0.9996928798147011
0.9996945486697839
0.9996962881708205
0.9996980963852992
0.9996999712264892
0.9997019104442119
0.9997039116158666
0.9997059721378885
0.9997080892177781
0.9997102598668669
0.9997124808939613
0.9997147489000079
0.9997170602739202
0.9997194111897005
0.9997217976049773
0.9997242152610815
0.9997266596847684
0.9997291261916895
0.9997316098916961
0.9997341056960637
0.9997366083266905
0.9997391123273307
0.99974161207689
0.999744101804809
0.9997465756085259
0.9997490274730128
0.9997514512923311
0.9997538408931661
0.9997561900602443
0.9997584925635425
0.9997607421871584
0.9997629327597078
0.9997650581860705
0.9997671124803119
0.9997690897995635
0.9997709844786542
0.9997727910652413
0.999774504355207
0.9997761194280415
0.9997776316819649
0.9997790368685026
0.9997803311262506
0.9997815110135627
0.999782573539903
0.9997835161956157
0.999784336979893
0.9997850344267303
0.9997856076286993
0.9997860562583966
0.9997863805874605
0.9997865815031054
0.9997866605221539
0.9997866198026182
0.999786462152929
0.9997861910389791
0.9997858105892268
0.9997853255981564
0.9997847415285065
0.9997840645127223
0.9997833013542208
0.9997824595291099
0.9997815471891383
0.999780573166713
0.9997795469829467
0.9997784788597474
0.9997773797369708
0.9997762612956009
0.9997751359878245
0.9997740170750605
0.9997729186719866
0.9997718557921288
0.9997708443877356
0.9997699014090291
0.9997690448168823
0.9997682934005648
0.9997676660234578
0.9997671818585321
0.9997668603467735
0.9997667157427778
0.9997667154675893
0.9997667971804933
0
0
0.9996902351718548
0.9996902749701317
0.9996901690359113
0.9996899021204451
0.9996894943606327
0.9996889625452741
0.9996883301183527
0.999687620396017
0.9996868552713343
0.9996860541626387
0.999685234376844
0.9996844112040987
0.9996835980543167
0.9996828066105056
0.9996820470130454
0.9996813280294291
0.9996806572088097
0.999680041021947
0.9996794849879468
0.9996789937879147
0.9996785713663918
0.9996782210217435
0.9996779454864999
0.9996777469986652
0.99967762736479
0.9996775880156381
0.9996776300550845
0.9996777543029075
0.9996779613319708
0.9996782515003356
0.9996786249786972
0.9996790817735948
0.999679621746713
0.9996802446306596
0.9996809500414827
0.9996817374882683
0.9996826063800375
0.9996835560302495
0.999684585659106
0.9996856943939247
0.9996868812677698
0.9996881452165752
0.9996894850749389
0.9996908995708028
0.9996923873191883
0.9996939468151858
0.9996955764263573
0.999697274384748
0.9996990387786455
0.9997008675442802
0.9997027584576047
0.9997047091263258
0.9997067169823264
0.9997087792746422
0.9997108930631264
0.9997130552129515
0.9997152623900818
0.9997175110578457
0.9997197974747393
0.9997221176935743
0.999724467562085
0.9997268427250972
0.9997292386283549
0.9997316505240847
0.999734073478373
0.9997365023804133
0.99973893195368
0.999741356769039
0.999743771259833
0.9997461697389234
0.9997485464176823
0.9997508954268753
0.9997532108394076
0.9997554866948211
0.999757717025475
0.9997598958842606
0.9997620173737465
0.9997640756765551
0.999766065086833
0.9997679800425847
0.9997698151586909
0.9997715652603546
0.9997732254167703
0.9997747909747365
0.9997762575919948
0.9997776212700024
0.9997788783859185
0.9997800257235239
0.999781060502857
0.9997819804083135
0.9997827836150218
0.999783468813276
0.9997840352308948
0.999784482653339
0.9997848114415248
0.9997850225472401
0.9997851175261865
0.9997850985486497
0.9997849684079165
0.9997847305265525
0.9997843889607754
0.9997839484031582
0.9997834141840235
0.999782792271889
0.9997820892734582
0.9997813124336333
0.9997804696361589
0.9997795694054563
0.9997786209102979
0.9997776339698327
0.9997766190624864
0.9997755873378708
0.9997745506313188
0.9997735214792864
0.9997725131343386
0.999771539575463
0.9997706155033251
0.9997697562728847
0.999768977769143
0.9997682962036061
0.9997677279167836
0.999767287778998
0.9997669868779702
0.9997668274807372
0.9997668040804684
0.9997668866535729
0
0
0.9996903262941027
0.9996903711986656
0.9996902661894773
0.9996900143781449
0.9996896407252347
0.9996891576256188
0.9996885850602889
0.9996879424718992
0.999687248483667
0.9996865201475147
0.9996857730956294
0.9996850213446866
0.9996842773488451
0.9996835521004923
0.9996828552554355
0.9996821952498216
0.9996815794181316
0.9996810141064925
0.9996805047784634
0.9996800561120425
0.9996796720880756
0.9996793560704503
0.9996791108783435
0.999678938851104
0.9996788419061774
0.9996788215906899
0.9996788791270738
0.9996790154532885
0.9996792312579674
0.9996795270109757
0.9996799029896557
0.9996803593011933
0.999680895901325
0.9996815126097782
0.9996822091226343
0.9996829850219567
0.9996838397828551
0.9996847727782957
0.99968578328181
0.9996868704683814
0.9996880334136545
0.9996892710917225
0.9996905823716244
0.999691966012794
0.9996934206595871
0.9996949448351016
0.9996965369344287
0.9996981952175227
0.9996999178018334
0.9997017026548699
0.9997035475868388
0.9997054502435203
0.9997074080995129
0.9997094184520039
0.9997114784151939
0.9997135849155193
0.9997157346877967
0.9997179242724151
0.999720150013702
0.9997224080595645
0.999724694362527
0.9997270046822472
0.999729334589615
0.9997316794724972
0.9997340345432146
0.9997363948477862
0.9997387552770063
0.9997411105793553
0.9997434553757898
0.9997457841763757
0.9997480913987729
0.9997503713885025
0.9997526184409767
0.9997548268251736
0.9997569908088997
0.9997591046854906
0.9997611628018498
0.9997631595876353
0.9997650895854656
0.999766947481913
0.9997687281391273
0.9997704266268295
0.9997720382544935
0.9997735586034362
0.9997749835586202
0.9997763093398756
0.9997775325323521
0.9997786501159076
0.9997796594932533
0.9997805585165898
0.9997813455125779
0.9997820193054128
0.9997825792378965
0.9997830251903274
0.9997833575971599
0.9997835774613284
0.9997836863662616
0.9997836864855613
0.9997835805904736
0.9997833720552046
0.9997830648603164
0.9997826635943567
0.9997821734540474
0.9997816002432883
0.9997809503713869
0.9997802308508299
0.9997794492950572
0.9997786139165515
0.9997777335256345
0.9997768175300653
0.999775875935473
0.9997749193461779
0.9997739589657062
0.9997730065940351
0.9997720746171205
0.999771175981701
0.9997703241588722
0.9997695330553653
0.9997688168346849
0.9997681895130919
0.999767664825495
0.9997672552017449
0.9997669703777313
0.9997668114048673
0.9997667886561701
0.999766895510889
0
0
0.9996906010549084
0.999690627902698
0.9996905076989513
0.9996902557361963
0.9996898952413488
0.9996894403018894
0.9996889078128942
0.9996883134658257
0.9996876731708811
0.9996870019470938
0.999686313679085
0.9996856209764907
0.9996849352283294
0.9996842666228648
0.9996836242052594
0.999683015956137
0.9996824488801115
0.9996819290927287
0.999681461904691
0.9996810519021835
0.9996807030220609
0.9996804186213779
0.9996802015409817
0.9996800541634306
0.9996799784652615
0.9996799760640068
0.9996800482601015
0.9996801960741138
0.9996804202794726
0.9996807214311146
0.99968109989021
0.9996815558453727
0.999682089330491
0.9996827002395582
0.9996833883386259
0.9996841532752202
0.9996849945853472
0.9996859116983886
0.999686903940006
0.9996879705333391
0.9996891105985994
0.9996903231513309
0.9996916070994343
0.9996929612392005
0.9996943842504599
0.9996958746910685
0.9996974309908326
0.9996990514450901
0.9997007342080423
0.9997024772860398
0.99970427853092
0.999706135633584
0.999708046117915
0.999710007335207
0.999712016459208
0.999714070481934
0.999716166210353
0.9997183002640836
0.9997204690741996
0.9997226688832641
0.9997248957466919
0.9997271455355248
0.9997294139407202
0.99973169647901
0.9997339885004138
0.999736285197439
0.999738581616029
0.9997408726682648
0.9997431531468519
0.9997454177413682
0.9997476610562754
0.9997498776306283
0.9997520619594548
0.9997542085167059
0.9997563117797095
0.9997583662549836
0.9997603665053209
0.9997623071779476
0.999764183033646
0.9997659889766046
0.9997677200848544
0.9997693716410305
0.9997709391632962
0.9997724184361402
0.9997738055408814
0.9997750968855782
0.9997762892341734
0.9997773797345789
0.999778365945542
0.9997792458620134
0.9997800179388912
0.9997806811128916
0.9997812348224592
0.9997816790255221
0.9997820142150607
0.9997822414323557
0.9997823622779554
0.9997823789202985
0.9997822941021209
0.9997821111446541
0.9997818339498264
0.9997814670005619
0.9997810153594566
0.9997804846659913
0.9997798811326197
0.9997792115399007
0.9997784832310115
0.9997777041057319
0.9997768826140839
0.9997760277494812
0.9997751490410998
0.9997742565443652
0.9997733608282159
0.9997724729571295
0.9997716044654062
0.9997707673106555
0.9997699737972343
0.999769236459811
0.9997685679594782
0.9997679807641746
0.9997674867238426
0.9997670960897213
0.9997668188072568
0.9997666610738318
0.9997666397668589
0.9997667626274018
0
0
0.9996910541568665
0.9996910253298965
0.9996908703846664
0.9996906038884356
0.9996902422136327
0.9996897995203532
0.9996892902381765
0.9996887279805947
0.9996881264152494
0.999687498492397
0.999686856387186
0.9996862113620377
0.9996855737122446
0.9996849527430708
0.99968435680347
0.9996837933340332
0.9996832689242134
0.9996827893751248
0.9996823597650396
0.9996819845141669
0.999681667446811
0.9996814118502481
0.9996812205296116
0.9996810958586758
0.9996810398262238
0.9996810540782285
0.9996811399557529
0.9996812985289155
0.9996815306269186
0.9996818368645165
0.9996822176649642
0.9996826732798219
0.9996832038056715
0.9996838091981086
0.9996844892830637
0.9996852437658041
0.9996860722376674
0.9996869741808505
0.9996879489713202
0.9996889958801364
0.9996901140732548
0.9996913026100845
0.9996925604408683
0.9996938864031393
0.9996952792173281
0.9996967374817534
0.999698259667072
0.9996998441104137
0.9997014890092671
0.9997031924153371
0.9997049522284431
0.9997067661906545
0.9997086318807463
0.9997105467091537
0.9997125079135036
0.9997145125548966
0.9997165575150134
0.9997186394941998
0.9997207550106076
0.9997229004005196
0.9997250718199419
0.9997272652475577
0.9997294764891286
0.999731701183404
0.9997339348096209
0.9997361726966162
0.9997384100336233
0.999740641882749
0.9997428631931643
0.9997450688169836
0.9997472535268411
0.9997494120350892
0.999751539014609
0.9997536291211129
0.9997556770168999
0.9997576773959042
0.9997596250099597
0.9997615146960915
0.9997633414047193
0.9997651002285495
0.9997667864320168
0.9997683954810193
0.9997699230727909
0.9997713651656273
0.9997727180083086
0.9997739781689136
0.9997751425628708
0.9997762084799459
0.9997771736100232
0.9997780360673916
0.9997787944134217
0.9997794476773759
0.9997799953752776
0.9997804375266204
0.9997807746689094
0.9997810078698552
0.9997811387372906
0.9997811694266894
0.9997811026464286
0.9997809416607444
0.9997806902905852
0.9997803529123872
0.9997799344550221
0.999779440394986
0.9997788767501014
0.9997782500717897
0.9997775674361474
0.9997768364337603
0.9997760651582871
0.999775262193408
0.9997744365977757
0.9997735978869473
0.9997727560106535
0.9997719213219624
0.9997711045365979
0.9997703166785992
0.999769569006366
0.9997688728828096
0.999768239632261
0.9997676803385346
0.9997672057320464
0.9997668254745546
0.9997665495862177
0.9997663871657898
0.9997663525407321
0.9997664571763798
0
0
0.9996916509345943
0.9996915476552295
0.9996913425733767
0.9996910454740332
0.9996906683900146
0.9996902237411002
0.9996897235884388
0.9996891797280313
0.9996886037489533
0.999688006794454
0.999687399498096
0.9996867918018336
0.9996861928856048
0.9996856111425885
0.9996850541817761
0.9996845288453503
0.9996840412433348
0.99968359679784
0.9996832002915094
0.9996828559176395
0.9996825673302125
0.9996823376927327
0.9996821697246486
0.9996820657450695
0.999682027713204
0.9996820572656172
0.999682155749991
0.9996823242556597
0.9996825636407592
0.9996828745563306
0.9996832574672952
0.9996837126706687
0.9996842403109646
0.9996848403931659
0.9996855127932254
0.9996862572664703
0.9996870734538884
0.9996879608866374
0.999688918988789
0.9996899470786123
0.9996910443684193
0.9996922099632641
0.9996934428585179
0.9996947419365994
0.9996961059628828
0.9996975335810515
0.9996990233079214
0.9997005735279878
0.9997021824877265
0.9997038482898835
0.9997055688877965
0.9997073420799598
0.9997091655048855
0.9997110366364582
0.9997129527798339
0.9997149110680719
0.9997169084595507
0.9997189417363312
0.9997210075035342
0.9997231021898605
0.9997252220493257
0.9997273631643165
0.9997295214500315
0.9997316926603901
0.9997338723954572
0.9997360561104467
0.9997382391263335
0.9997404166420999
0.9997425837486322
0.9997447354442555
0.9997468666519049
0.9997489722378698
0.9997510470320937
0.9997530858499228
0.9997550835152562
0.9997570348849463
0.999758934874377
0.9997607784840288
0.9997625608269257
0.9997642771567372
0.999765922896409
0.9997674936670583
0.9997689853169962
0.9997703939505826
0.999771715956767
0.9997729480370132
0.9997740872324551
0.9997751309499806
0.9997760769871098
0.9997769235553687
0.9997776693020561
0.9997783133301288
0.9997788552161425
0.9997792950260106
0.9997796333285721
0.9997798712067808
0.999780010266565
0.9997800526432266
0.9997800010054964
0.9997798585571709
0.9997796290365056
0.9997793167133365
0.999778926384156
0.9997784633651283
0.9997779334832819
0.9997773430658257
0.9997766989277592
0.9997760083575951
0.999775279101175
0.9997745193430682
0.9997737376850037
0.9997729431202426
0.9997721450030332
0.9997713530107087
0.9997705770947055
0.9997698274155298
0.9997691142687233
0.9997684479886065
0.9997678388251211
0.9997672967492809
0.9997668314833793
0.9997664523113564
0.9997661688141525
0.9997659907449378
0.9997659293977577
0.9997659941070907
0
0
0.999692360114426
0.9996921723387481
0.999691904980257
0.9996915644736789
0.9996911601591842
0.9996907016450167
0.9996901987869067
0.9996896615737909
0.9996890998135117
0.9996885230645413
0.9996879405052139
0.9996873608094253
0.9996867920810281
0.9996862418054074
0.999685716828191
0.9996852233577733
0.9996847669834228
0.9996843527024885
0.9996839849539332
0.9996836676560368
0.9996834042456495
0.9996831977177062
0.9996830506636677
0.9996829653084951
0.9996829435453428
0.9996829869679561
0.9996830969002924
0.9996832744235764
0.9996835204004832
0.999683835496774
0.9996842202001679
0.9996846748368319
0.99968519958533
0.9996857944884234
0.9996864594626047
0.9996871943057537
0.9996879987028207
0.9996888722299156
0.9996898143567247
0.9996908244476166
0.9996919017613769
0.999693045449908
0.9996942545558541
0.999695528009464
0.9996968646246617
0.9996982630946233
0.999699721986838
0.9997012397379371
0.9997028146482715
0.999704444876511
0.9997061284342574
0.9997078631809155
0.9997096468188388
0.9997114768889647
0.9997133507669677
0.9997152656601292
0.9997172186049558
0.9997192064657253
0.9997212259339983
0.9997232735292505
0.9997253456006684
0.9997274383302334
0.9997295477371393
0.9997316696836436
0.9997337998823801
0.9997359339052124
0.9997380671936473
0.9997401950708381
0.9997423127551965
0.999744415375602
0.9997464979881984
0.9997485555947377
0.9997505831624312
0.9997525756452235
0.9997545280064295
0.9997564352425992
0.9997582924085283
0.9997600946432356
0.9997618371967993
0.9997635154578312
0.9997651249814615
0.9997666615175774
0.9997681210391726
0.9997694997705207
0.9997707942150249
0.9997720011824406
0.9997731178153204
0.9997741416143752
0.9997750704626209
0.9997759026479998
0.9997766368843845
0.9997772723306664
0.9997778086078839
0.9997782458141161
0.9997785845371547
0.9997788258647252
0.9997789713923176
0.9997790232284562
0.9997789839975312
0.999778856840061
0.9997786454105663
0.9997783538729657
0.9997779868937038
0.9997775496325303
0.9997770477311425
0.9997764872995629
0.9997758749003932
0.9997752175306718
0.9997745226012879
0.9997737979134388
0.9997730516317506
0.9997722922528948
0.9997715285686102
0.9997707696218588
0.999770024655546
0.9997693030488423
0.9997686142398864
0.999767967637133
0.999767372542109
0.9997668380360891
0.9997663729809221
0.9997659860382025
0.999765685836225
0.9997654810055862
0.9997653810441023
0.9997653927115913
0
0
0.9996931554511094
0.9996928771137523
0.9996925390419718
0.9996921459312218
0.9996917045246259
0.9996912220374115
0.9996907064286816
0.9996901658861227
0.9996896086047311
0.999689042679128
0.9996884759517775
0.9996879159204317
0.9996873696582396
0.9996868437570552
0.9996863442985635
0.9996858768442443
0.9996854464384886
0.9996850576228805
0.9996847144582286
0.999684420551637
0.999684179086161
0.9996839928519974
0.9996838642776897
0.9996837954608476
0.9996837881974016
0.9996838440093432
0.9996839641703164
0.99968414972924
0.999684401531526
0.9996847202382034
0.9996851063426303
0.9996855601851723
0.9996860819656012
0.9996866717536174
0.9996873294973005
0.9996880550298987
0.9996888480747844
0.9996897082489926
0.9996906350651897
0.9996916279324659
0.9996926861558325
0.9996938089347929
0.9996949953608878
0.9996962444145613
0.9996975549612671
0.9996989257471427
0.9997003553941816
0.9997018423952174
0.9997033851086611
0.9997049817532828
0.9997066304030002
0.9997083289819408
0.9997100752597537
0.9997118668474186
0.9997137011935421
0.9997155755813647
0.9997174871264786
0.9997194327754645
0.9997214093054494
0.9997234133247662
0.9997254412747346
0.9997274894327065
0.9997295539164012
0.9997316306896458
0.9997337155695374
0.9997358042351187
0.9997378922375663
0.9997399750119565
0.9997420478905885
0.9997441061178903
0.9997461448668769
0.9997481592571349
0.9997501443742894
0.9997520952908752
0.99975400708855
0.9997558748815258
0.9997576938411257
0.9997594592213012
0.999761166384996
0.9997628108311406
0.9997643882221515
0.9997658944116743
0.9997673254724336
0.9997686777238991
0.9997699477596222
0.9997711324739295
0.9997722290878335
0.9997732351738404
0.999774148679524
0.9997749679495509
0.9997756917460559
0.9997763192670694
0.9997768501629345
0.9997772845504374
0.9997776230246509
0.9997778666682484
0.9997780170583391
0.9997780762706309
0.9997780468810322
0.9997779319645337
0.9997777350915392
0.9997774603215094
0.9997771121941254
0.9997766957178348
0.9997762163559836
0.9997756800103448
0.9997750930021873
0.9997744620505853
0.9997737942479301
0.9997730970321028
0.9997723781550363
0.9997716456469125
0.9997709077752581
0.9997701729972999
0.9997694499054732
0.9997687471661718
0.999768073451244
0.9997674373579297
0.9997668473396756
0.9997663116473531
0.9997658382977697
0.9997654350966765
0.9997651096762903
0.9997648691673385
0.9997647212187393
0.999764671132665
0
0
0.9996940137451948
0.9996936410882041
0.9996932269127387
0.999692774515516
0.9996922883058841
0.9996917737526033
0.9996912370638681
0.9996906847859565
0.9996901236621982
0.9996895604464511
0.999689001763457
0.9996884540148215
0.9996879232956202
0.999687415338717
0.9996869354780736
0.999686488628371
0.9996860792786902
0.9996857114974982
0.9996853889450843
0.9996851148916878
0.999684892239115
0.9996847235447581
0.9996846110463448
0.999684556686981
0.9996845621393984
0.9996846288293387
0.9996847579573187
0.9996849505189436
0.999685207323228
0.9996855290092375
0.999685916060627
0.9996863688184774
0.9996868874920837
0.9996874721681345
0.9996881228179938
0.9996888393035313
0.9996896213812566
0.9996904687052017
0.9996913808283303
0.9996923572029116
0.9996933971796671
0.9996945000060963
0.9996956648238272
0.9996968906653736
0.9996981764501571
0.9996995209801651
0.9997009229351177
0.9997023808674969
0.9997038931973219
0.9997054582070103
0.9997070740362232
0.9997087386770166
0.9997104499692072
0.9997122055962575
0.9997140030816074
0.9997158397857266
0.9997177129038385
0.9997196194645575
0.9997215563294073
0.9997235201934392
0.9997255075869178
0.9997275148782722
0.9997295382782855
0.9997315738456864
0.9997336174941148
0.9997356650005964
0.9997377120154912
0.9997397540740088
0.9997417866092553
0.9997438049668516
0.9997458044210829
0.9997477801925712
0.9997497274674092
0.9997516414177031
0.9997535172234434
0.9997553500955955
0.9997571353003113
0.9997588681841063
0.9997605441998769
0.9997621589335579
0.9997637081312774
0.9997651877267633
0.999766593868853
0.999767922948812
0.9997691716273245
0.9997703368608252
0.9997714159270369
0.9997724064493845
0.9997733064201505
0.999774114222049
0.9997748286481122
0.9997754489195734
0.9997759747016921
0.9997764061172114
0.9997767437574601
0.9997769886908221
0.9997771424686317
0.9997772071282603
0.999777185193523
0.9997770796721904
0.9997768940507935
0.9997766322865347
0.9997762987965162
0.9997758984441044
0.9997754365226452
0.9997749187363008
0.9997743511781646
0.9997737403053366
0.9997730929110045
0.9997724160930415
0.9997717172189324
0.9997710038863297
0.9997702838791153
0.9997695651181856
0.9997688556063036
0.9997681633668484
0.9997674963797524
0.9997668625142714
0.9997662694631665
0.9997657246918485
0.9997652353895252
0.999764808410419
0.9997644503356473
0.9997641670840959
0.9997639643471863
0.9997638462802696
0
0
0.999694914194871
0.9996944456610452
0.9996939521257825
0.9996934356223349
0.9996928988461498
0.9996923458348068
0.999691781244508
0.9996912102283291
0.99969063822131
0.999690070759147
0.9996895133543795
0.9996889713940837
0.9996884500586654
0.9996879542645741
0.9996874886224728
0.9996870574117398
0.9996866645676888
0.9996863136790656
0.9996860079930447
0.9996857504264034
0.9996855435805089
0.9996853897592033
0.999685290987942
0.9996852490338344
0.9996852654253732
0.9996853414718353
0.9996854782814767
0.9996856767787343
0.9996859377197723
0.9996862617067142
0.9996866492000491
0.9996871005296307
0.9996876159038398
0.9996881954173811
0.9996888390573467
0.9996895467080241
0.9996903181541318
0.9996911530829654
0.9996920510851637
0.9996930116545689
0.9996940341869234
0.9996951179778594
0.9996962622199491
0.9996974659992492
0.9996987282911384
0.9997000479558538
0.999701423733547
0.999702854239254
0.999704337957605
0.9997058732376607
0.9997074582877156
0.9997090911704293
0.9997107697981574
0.9997124919288086
0.9997142551621213
0.9997160569366709
0.9997178945275094
0.999719765044725
0.999721665432842
0.9997235924713215
0.9997255427760918
0.9997275128023407
0.9997294988485129
0.9997314970617008
0.9997335034443862
0.9997355138626834
0.9997375240560324
0.9997395296484595
0.9997415261613507
0.9997435090278025
0.999745473608489
0.9997474152090619
0.999749329099006
0.9997512105319185
0.9997530547671096
0.9997548570924457
0.9997566128483137
0.9997583174525658
0.999759966426315
0.9997615554203783
0.9997630802422321
0.9997645368832202
0.9997659215458728
0.9997672306710363
0.9997684609646655
0.9997696094239551
0.999770673362658
0.9997716504352553
0.9997725386598445
0.9997733364393991
0.9997740425812999
0.9997746563147993
0.9997751773063625
0.9997756056725572
0.9997759419905016
0.9997761873055658
0.9997763431363913
0.999776411476962
0.9997763947958576
0.9997762960324466
0.9997761185902055
0.99977586632695
0.999775543542196
0.9997751549614399
0.9997747057175836
0.9997742013292642
0.9997736476762736
0.9997730509717626
0.9997724177313198
0.999771754738518
0.9997710690069539
0.9997703677381824
0.9997696582754665
0.9997689480530505
0.9997682445412901
0.9997675551871138
0.9997668873513355
0.9997662482458783
0.9997656448699769
0.9997650839499985
0.9997645718878725
0.9997641146593963
0.9997637177916171
0.99976338618097
0.9997631239291735
0.999762934089621
0
0
0.9996958385695497
0.999695274089714
0.999694699405442
0.9996941155620038
0.9996935240264574
0.9996929275948754
0.9996923296476714
0.9996917341448951
0.9996911453556403
0.9996905677291692
0.9996900057681868
0.9996894639278823
0.9996889465383488
0.9996884577461737
0.9996880014710591
0.9996875813772799
0.9996872008561669
0.9996868630184437
0.9996865706938679
0.9996863264369398
0.9996861325364899
0.9996859910285085
0.9996859037105443
0.9996858721574086
0.9996858977369097
0.9996859816256772
0.999686124824099
0.9996863281706437
0.9996865923547942
0.9996869179289971
0.9996873053190043
0.9996877548330775
0.9996882666695406
0.9996888409231889
0.9996894775901033
0.9996901765714014
0.9996909376755222
0.9996917606195761
0.9996926450293957
0.9996935904388105
0.9996945962878157
0.9996956619201374
0.9996967865798966
0.9996979694078565
0.9996992094369733
0.9997005055877286
0.9997018566629736
0.9997032613427462
0.9997047181788236
0.9997062255894344
0.9997077818539272
0.9997093851077956
0.9997110333378707
0.9997127243780694
0.9997144559055262
0.9997162254374717
0.9997180303287042
0.9997198677699969
0.9997217347873066
0.9997236282420869
0.9997255448326037
0.9997274810965113
0.9997294334146059
0.9997313980159809
0.9997333709845041
0.9997353482668078
0.9997373256817097
0.9997392989312145
0.9997412636130167
0.9997432152345992
0.9997451492288406
0.9997470609711872
0.9997489457982695
0.9997507990279816
0.9997526159808844
0.9997543920028791
0.9997561224890179
0.9997578029083201
0.9997594288294538
0.9997609959470926
0.9997625001087889
0.9997639373421284
0.9997653038819927
0.9997665961976455
0.9997678110194742
0.9997689453650691
0.9997699965644683
0.9997709622842318
0.9997718405502024
0.9997726297685885
0.9997733287452732
0.9997739367029794
0.9997744532962454
0.9997748786238514
0.9997752132387093
0.999775458154883
0.9997756148518133
0.9997756852754442
0.9997756718363917
0.9997755774048819
0.9997754053026593
0.9997751592916163
0.9997748435593838
0.9997744627016482
0.9997740217014464
0.9997735259051882
0.9997729809956454
0.9997723929616072
0.9997717680643998
0.9997711128008809
0.9997704338630715
0.9997697380940492
0.9997690324402231
0.9997683238995952
0.999767619466592
0.999766926073685
0.9997662505301232
0.9997655994593807
0.9997649792353307
0.9997643959127225
0.9997638551623433
0.9997633621866012
0.999762921590645
0.9997625373390125
0.9997622123641754
0.9997619487940127
0
0
0.9996967709230268
0.9996961113599021
0.9996954548281184
0.9996948016603209
0.9996941523836881
0.999693508776377
0.9996928731837776
0.9996922485300744
0.9996916380700326
0.9996910452907073
0.9996904737826614
0.9996899271505796
0.9996894089387004
0.9996889225735458
0.9996884713207376
0.9996880582548262
0.9996876862391125
0.9996873579146957
0.9996870756961914
0.9996868417733
0.9996866581162057
0.999686526484343
0.9996864484368486
0.9996864253445836
0.9996864584024079
0.9996865486418509
0.9996866969431262
0.9996869040468285
0.9996871705644577
0.9996874969882261
0.9996878836994393
0.9996883309759825
0.9996888389982949
0.9996894078544151
0.9996900375435409
0.9996907279787093
0.9996914789880945
0.9996922903155244
0.999693161619762
0.9996940924731402
0.9996950823591306
0.9996961306694252
0.9996972367001296
0.9996983996476403
0.9996996186038325
0.9997008925510992
0.9997022203569024
0.9997036007683553
0.9997050324065256
0.999706513760945
0.9997080431840508
0.9997096188860201
0.9997112389297431
0.9997129012263787
0.9997146035312581
0.9997163434405554
0.9997181183885218
0.9997199256456619
0.9997217623176831
0.9997236253455637
0.9997255115065862
0.9997274174166514
0.9997293395337374
0.9997312741627815
0.9997332174618581
0.9997351654498947
0.9997371140157998
0.9997390589292053
0.9997409958526942
0.9997429203556627
0.9997448279296945
0.9997467140055257
0.9997485739714824
0.9997504031934
0.9997521970359006
0.9997539508849719
0.9997556601717065
0.999757320397088
0.9997589271576597
0.9997604761719061
0.9997619633071704
0.9997633846068745
0.9997647363178609
0.9997660149175703
0.9997672171408769
0.9997683400062476
0.9997693808410631
0.9997703373057344
0.9997712074164726
0.9997719895663353
0.9997726825444361
0.9997732855529441
0.9997737982218037
0.9997742206208138
0.9997745532690608
0.9997747971413589
0.9997749536717666
0.9997750247538592
0.9997750127378948
0.9997749204245902
0.9997747510557007
0.9997745083011568
0.9997741962429972
0.9997738193558656
0.999773382484345
0.9997728908168895
0.9997723498566362
0.9997717653888253
0.9997711434451053
0.9997704902644193
0.9997698122507184
0.9997691159271895
0.9997684078873552
0.9997676947427724
0.9997669830677245
0.9997662793410991
0.9997655898857831
0.9997649208054615
0.9997642779194023
0.9997636666923195
0.9997630921510627
0.9997625588184359
0.9997620705506688
0.999761630523815
0.999761240789491
0.9997609027929613
0
0
0.9996976972211998
0.9996969440209766
0.9996962057399968
0.9996954821844521
0.999694773151378
0.999694079613735