# vtk DataFile Version 2.0
2D-ADE data file 
ASCII
DATASET RECTILINEAR_GRID
DIMENSIONS 128 128 1 
X_COORDINATES 128 int
0 1 2 3 4 5 6 7 8 9 10 11 12 13 14 15 16 17 18 19 20 21 22 23 24 25 26 27 28 29 30 31 32 33 34 35 36 37 38 39 40 41 42 43 44 45 46 47 48 49 50 51 52 53 54 55 56 57 58 59 60 61 62 63 64 65 66 67 68 69 70 71 72 73 74 75 76 77 78 79 80 81 82 83 84 85 86 87 88 89 90 91 92 93 94 95 96 97 98 99 100 101 102 103 104 105 106 107 108 109 110 111 112 113 114 115 116 117 118 119 120 121 122 123 124 125 126 127 
Y_COORDINATES 128 int
0 1 2 3 4 5 6 7 8 9 10 11 12 13 14 15 16 17 18 19 20 21 22 23 24 25 26 27 28 29 30 31 32 33 34 35 36 37 38 39 40 41 42 43 44 45 46 47 48 49 50 51 52 53 54 55 56 57 58 59 60 61 62 63 64 65 66 67 68 69 70 71 72 73 74 75 76 77 78 79 80 81 82 83 84 85 86 87 88 89 90 91 92 93 94 95 96 97 98 99 100 101 102 103 104 105 106 107 108 109 110 111 112 113 114 115 116 117 118 119 120 121 122 123 124 125 126 127 
Z_COORDINATES 1 int
0
POINT_DATA 16384
SCALARS density double
LOOKUP_TABLE default
0
0
0
0
0
0
0
0
0
0
0
0
0
0
0
0
0
0
0
0
0
0
0
0
0
0
0
0
0
0
0
0
0
0
0
0
0
0
0
0
0
0
0
0
0
0
0
0
0
0
0
0
0
0
0
0
0
0
0
0
0
0
0
0
0
0
0
0
0
0
0
0
0
0
0
0
0
0
0
0
0
0
0
0
0
0
0
0
0
0
0
0
0
0
0
0
0
0
0
0
0
0
0
0
0
0
0
0
0
0
0
0
0
0
0
0
0
0
0
0
0
0
0
0
0
0
0
0
0
0.9997013378101647
0.999701374389617
0.9997012746641935
0.9997010028156451
0.9997005678193982
0.9997000048085892
0.9996993451339616
0.9996986150692219
0.9996978376933603
0.9996970333753139
0.9996962196342394
0.999695411442226
0.9996946215900331
0.9996938609902097
0.9996931389210365
0.9996924632422204
0.9996918405827159
0.9996912765025024
0.9996907756321347
0.9996903417940581
0.9996899781084372
0.9996896870857248
0.9996894707077835
0.9996893304990809
0.9996892675891842
0.9996892827675803
0.9996893765316853
0.9996895491287644
0.9996898005923882
0.9996901307739627
0.9996905393697976
0.999691025944134
0.999691589948495
0.9996922307376951
0.9996929475828067
0.9996937396813632
0.9996946061650462
0.9996955461050987
0.9996965585156784
0.9996976423553592
0.9996987965269738
0.9997000198759805
0.999701311187529
0.9997026691823938
0.9997040925119357
0.9997055797522397
0.9997071293975918
0.9997087398534252
0.99971040942889
0.9997121363291714
0.9997139186477071
0.9997157543584152
0.9997176413080799
0.9997195772090097
0.9997215596320951
0.9997235860003841
0.9997256535832963
0.9997277594915865
0.999729900673165
0.9997320739098904
0.999734275815423
0.9997365028342478
0.9997387512419459
0.9997410171468047
0.9997432964928411
0.9997455850643012
0.9997478784916988
0.9997501722594411
0.9997524617150714
0.9997547420801599
0.9997570084628536
0.9997592558720783
0.9997614792333808
0.9997636734063788
0.9997658332037711
0.9997679534118412
0.9997700288123856
0.9997720542059578
0.9997740244363321
0.9997759344160512
0.99977777915292
0.9997795537772984
0.9997812535700197
0.9997828739907658
0.9997844107067142
0.999785859621265
0.999787216902663
0.9997884790123112
0.9997896427325986
0.9997907051940452
0.9997916639016062
0.99979251675996
0.9997932620976527
0.9997938986899702
0.9997944257804593
0.9997948431010263
0.9997951508906056
0.9997953499124155
0.9997954414698749
0.999795427421314
0.9997953101936683
0.9997950927954194
0.999794778829136
0.9997943725040407
0.9997938786491559
0.9997933027276817
0.9997926508534077
0.9997919298101027
0.999791147075008
0.9997903108477486
0.9997894300861712
0.9997885145508159
0.9997875748598896
0.9997866225573142
0.999785670195297
0.9997847314310715
0.9997838211322414
0.999782955513765
0.9997821522836549
0.9997814306974846
0.9997808110789477
0.9997803148827691
0.9997799652522177
0.9997797852149376
0.9997797649318199
0.999779849783802
0
0
0.9997013014377547
0.9997013359013855
0.9997012338773662
0.9997009820045045
0.9997006016330431
0.9997001096309968
0.99969952891386
0.9996988817486359
0.9996981887396147
0.9996974679745416
0.9996967354300864
0.9996960050889305
0.9996952891023919
0.9996945979635914
0.9996939406999045
0.9996933250446693
0.9996927575905257
0.9996922439259281
0.999691788756974
0.9996913960154056
0.9996910689542754
0.9996908102327023
0.9996906219909553
0.9996905059169547
0.999690463305094
0.9996904951081989
0.9996906019832998
0.9996907843318418
0.999691042334833
0.9996913759834194
0.9996917851052749
0.9996922693871981
0.9996928283942227
0.9996934615855694
0.9996941683276915
0.9996949479046898
0.9996957995263118
0.9996967223337755
0.9996977154036074
0.9996987777496997
0.999699908323763
0.9997011060143564
0.9997023696446529
0.9997036979691108
0.9997050896691955
0.9997065433483047
0.9997080575260423
0.9997096306319749
0.9997112609990191
0.9997129468565719
0.9997146863235379
0.999716477401363
0.9997183179672005
0.9997202057673423
0.9997221384110189
0.9997241133646929
0.999726127946956
0.9997281793241388
0.999730264506737
0.9997323803467582
0.9997345235360847
0.9997366906059421
0.9997388779275603
0.999741081714105
0.9997432980239542
0.9997455227653733
0.999747751702656
0.9997499804637645
0.999752204549507
0.9997544193442717
0.9997566201283308
0.9997588020917053
0.999760960349577
0.9997630899592138
0.9997651859383637
0.9997672432850528
0.9997692569987141
0.999771222102552
0.9997731336670419
0.9997749868344361
0.9997767768441513
0.9997784990588844
0.9997801489913036
0.999781722331149
0.9997832149725682
0.9997846230415044
0.9997859429229627
0.9997871712879677
0.9997883051200325
0.9997893417409714
0.9997902788358942
0.9997911144772201
0.9997918471476002
0.999792475761615
0.9997929996861827
0.9997934187596046
0.9997937333092433
0.9997939441678398
0.9997940526885432
0.9997940607587568
0.9997939708129779
0.9997937858448522
0.9997935094187494
0.9997931456812171
0.9997926993727827
0.9997921758406197
0.9997915810527279
0.9997909216143318
0.9997902047873255
0.9997894385136242
0.9997886314433966
0.9997877929690646
0.9997869332658161
0.9997860633383898
0.9997851950744809
0.9997843413032486
0.999783515856151
0.9997827335890048
0.9997820103646822
0.9997813629531006
0.999780809077581
0.9997803662537904
0.9997800501571589
0.9997798684130527
0.9997798259126489
0.9997798973505222
0
0
0.9997013983892973
0.9997014319075683
0.9997013283108469
0.999701091200433
0.9997007437352879
0.9997002983088429
0.9996997744143886
0.9996991905246779
0.9996985641260068
0.9996979111128931
0.9996972459320068
0.999696581416965
0.9996959288727731
0.9996952981944555
0.9996946979995857
0.9996941357494292
0.999693617868351
0.9996931498558624
0.9996927363894411
0.9996923814176638
0.9996920882443939
0.9996918596046107
0.9996916977324671
0.9996916044222248
0.9996915810826397
0.9996916287854016
0.9996917483080973
0.9996919401721974
0.9996922046764537
0.9996925419261168
0.9996929518582921
0.9996934342637753
0.9996939888056361
0.9996946150348327
0.9996953124030916
0.9996960802732995
0.9996969179275973
0.9996978245734137
0.9996987993475913
0.9996998413188228
0.9997009494885377
0.9997021227904324
0.999703360088777
0.999704660175674
0.9997060217673909
0.9997074434999359
0.9997089239239859
0.9997104614993302
0.9997120545889301
0.9997137014527508
0.9997154002414672
0.9997171489901814
0.9997189456122585
0.9997207878934119
0.9997226734861347
0.9997245999046054
0.9997265645201607
0.9997285645574531
0.999730597091385
0.999732659044922
0.9997347471878731
0.9997368581367292
0.9997389883556391
0.9997411341585966
0.9997432917129103
0.9997454570440084
0.9997476260416394
0.9997497944675013
0.9997519579643342
0.9997541120664927
0.9997562522120128
0.9997583737561584
0.9997604719864389
0.9997625421390589
0.9997645794167592
0.9997665790079863
0.9997685361073156
0.9997704459370431
0.9997723037698378
0.9997741049523425
0.9997758449295967
0.9997775192701299
0.9997791236915936
0.9997806540867528
0.9997821065496864
0.9997834774020148
0.9997847632189907
0.9997859608552663
0.999787067470184
0.9997880805524055
0.9997889979437423
0.9997898178620268
0.9997905389229156
0.9997911601604962
0.9997916810466344
0.9997921015089816
0.9997924219476477
0.9997926432505103
0.9997927668072483
0.9997927945221572
0.9997927288259139
0.9997925726864497
0.999792329619208
0.9997920036970459
0.9997915995601754
0.9997911224265156
0.999790578102953
0.9997899729979811
0.9997893141362715
0.9997886091756275
0.9997878664267424
0.9997870948759359
0.9997863042110688
0.9997855048492651
0.9997847079635289
0.9997839255013593
0.9997831702014829
0.9997824555807645
0.9997817958641187
0.9997812056588249
0.9997806998696543
0.9997802929435923
0.9997799984526091
0.9997798215863675
0.9997797742175266
0.99977985268586
0
0
0.9997016628588162
0.999701675301229
0.9997015550983657
0.9997013166344627
0.9997009813709669
0.9997005628304098
0.9997000769204146
0.9996995384354197
0.9996989623057597
0.9996983624927265
0.9996977517919001
0.9996971417389544
0.9996965426748871
0.9996959637759265
0.9996954131210706
0.9996948977768569
0.99969442388793
0.9996939967637811
0.9996936209615352
0.9996933003638268
0.9996930382509865
0.9996928373672683
0.9996926999811806
0.999692627940234
0.9996926227203325
0.9996926854701762
0.9996928170509553
0.9996930180716972
0.9996932889205323
0.999693629792216
0.9996940407121311
0.9996945215570845
0.9996950720730864
0.9996956918903945
0.9996963805359902
0.999697137443735
0.999697961962361
0.9996988533615195
0.9996998108360183
0.9997008335084633
0.9997019204304155
0.999703070582266
0.999704282871931
0.9997055561325535
0.9997068891193084
0.9997082805054883
0.9997097288779613
0.9997112327321608
0.999712790466709
0.9997144003778154
0.9997160606535489
0.9997177693681224
0.9997195244762849
0.9997213238079513
0.9997231650631595
0.9997250458074827
0.9997269634679807
0.9997289153298101
0.9997308985335714
0.9997329100735042
0.9997349467966032
0.9997370054027535
0.999739082445946
0.9997411743366662
0.9997432773454977
0.9997453876080156
0.9997475011310087
0.9997496138000741
0.9997517213886082
0.9997538195682183
0.9997559039205561
0.9997579699505742
0.9997600131011797
0.9997620287692593
0.9997640123230289
0.9997659591206498
0.9997678645300399
0.9997697239497888
0.9997715328310856
0.9997732867005382
0.9997749811837686
0.9997766120296362
0.9997781751349618
0.9997796665695745
0.999781082601545
0.9997824197224178
0.9997836746722963
0.9997848444645877
0.9997859264102672
0.999786918141477
0.9997878176343333
0.9997886232307696
0.999789333659325
0.9997899480547388
0.9997904659762861
0.9997908874247725
0.999791212858178
0.9997914432059161
0.9997915798817694
0.9997916247955361
0.9997915803635243
0.9997914495180066
0.9997912357158499
0.999790942946513
0.9997905757397051
0.9997901391729573
0.999789638879446
0.9997890810563198
0.999788472473837
0.9997878204854376
0.9997871330388323
0.9997864186875507
0.9997856866020667
0.9997849465790658
0.9997842090480467
0.9997834850651788
0.9997827862831101
0.9997821248773604
0.9997815134957434
0.9997809650508449
0.9997804924075843
0.9997801072333634
0.9997798210979819
0.9997796426075787
0.9997795890164158
0.9997796691138353
0
0
0.9997020883888682
0.9997020452365809
0.9997018903025527
0.9997016369907799
0.999701300273096
0.9997008932485651
0.9997004292311884
0.9996999209419873
0.999699381078489
0.9996988215985675
0.9996982536848819
0.9996976876183068
0.9996971327294976
0.9996965973891629
0.9996960890500859
0.9996956142993919
0.9996951789180935
0.9996947879447807
0.9996944457406551
0.9996941560527502
0.999693922074017
0.9996937464997644
0.9996936315800677
0.9996935791680452
0.9996935907639335
0.9996936675551418
0.9996938104523568
0.9996940201219617
0.9996942970148829
0.9996946413921515
0.9996950533473055
0.999695532825905
0.9996960796422923
0.9996966934938487
0.9996973739728706
0.9996981205763051
0.9996989327134512
0.9996998097118558
0.999700750821498
0.9997017552174765
0.9997028220012903
0.9997039502009083
0.999705138769714
0.9997063865845147
0.999707692442687
0.9997090550586449
0.9997104730596996
0.9997119449814826
0.999713469263005
0.9997150442415136
0.9997166681472135
0.9997183390980156
0.9997200550943708
0.9997218140143457
0.999723613609004
0.9997254514982272
0.999727325167051
0.9997292319626369
0.9997311690919493
0.999733133620249
0.9997351224704722
0.9997371324235887
0.999739160119999
0.9997412020620616
0.9997432546177887
0.9997453140257812
0.9997473764014463
0.9997494377445326
0.9997514939480093
0.9997535408083155
0.9997555740369757
0.9997575892735818
0.9997595821001247
0.9997615480566385
0.9997634826581213
0.9997653814126719
0.9997672398407703
0.9997690534956182
0.9997708179844498
0.999772528990688
0.9997741822968448
0.999775773808011
0.9997772995758157
0.9997787558226829
0.9997801389662506
0.9997814456437645
0.9997826727363117
0.9997838173926963
0.9997848770528239
0.9997858494704098
0.9997867327348842
0.999787525292327
0.9997882259653328
0.999788833971665
0.9997893489416348
0.9997897709341039
0.9997901004510983
0.9997903384509755
0.9997904863601937
0.9997905460836773
0.9997905200138999
0.9997904110387289
0.9997902225482111
0.999789958440407
0.9997896231264856
0.9997892215352105
0.9997887591170307
0.9997882418478483
0.9997876762325638
0.9997870693082109
0.9997864286464758
0.9997857623549777
0.9997850790761755
0.9997843879807805
0.9997836987533452
0.9997830215671037
0.9997823670459226
0.9997817461746529
0.9997811701755255
0.9997806503180767
0.9997801978624088
0.9997798233728836
0.9997795374579654
0.9997793498929985
0.9997792748294201
0.999779323663309
0
0
0.9997026408907869
0.9997025254404333
0.9997023219421063
0.9997020391521555
0.9997016876420933
0.9997012786974626
0.9997008233399005
0.9997003324051355
0.9996998165179649
0.9996992858993449
0.9996987502650468
0.9996982186477741
0.99969769933813
0.9996971998679336
0.9996967270164105
0.9996962868313699
0.9996958846666848
0.9996955252276226
0.9996952126191938
0.9996949503953595
0.9996947416077164
0.9996945888525567
0.9996944943154347
0.9996944598129305
0.9996944868313107
0.9996945765620794
0.9996947299343324
0.9996949476440505
0.9996952301803438
0.9996955778488544
0.9996959907923684
0.9996964690088681
0.9996970123670869
0.9996976206198078
0.9996982934149717
0.999699030304824
0.9996998307531736
0.9997006941409825
0.9997016197703472
0.9997026068670954
0.9997036545820447
0.9997047619911397
0.9997059280945125
0.9997071518146741
0.9997084319938758
0.9997097673908414
0.9997111566769105
0.9997125984317795
0.999714091138888
0.9997156331806205
0.9997172228333762
0.9997188582626696
0.9997205375183129
0.9997222585298355
0.9997240191021918
0.9997258169119038
0.9997276495036886
0.9997295142877118
0.9997314085375067
0.9997333293886989
0.9997352738385681
0.9997372387465706
0.9997392208358573
0.9997412166958871
0.999743222786166
0.9997452354411954
0.999747250876647
0.9997492651968267
0.9997512744034305
0.9997532744056322
0.9997552610314898
0.999757230040685
0.9997591771385567
0.9997610979914184
0.9997629882431075
0.9997648435327068
0.999766659513384
0.9997684318722442
0.9997701563511291
0.999771828768227
0.999773445040392
0.999775001206039
0.9997764934484703
0.9997779181194861
0.9997792717631319
0.9997805511394023
0.9997817532477692
0.9997828753503265
0.9997839149944401
0.999784870034688
0.9997857386539898
0.999786519383734
0.9997872111228159
0.9997878131554228
0.9997883251675115
0.9997887472618474
0.9997890799715966
0.9997893242723804
0.9997894815928281
0.9997895538235905
0.9997895433249028
0.9997894529326926
0.9997892859633707
0.9997890462173328
0.9997887379813197
0.9997883660296636
0.9997879356245144
0.9997874525149867
0.9997869229351851
0.9997863536007825
0.9997857517036555
0.9997851249035724
0.9997844813160943
0.99978382949484
0.9997831784043811
0.9997825373765492
0.9997819160541023
0.999781324316693
0.9997807721803962
0.9997802695914796
0.999779826349731
0.9997794519721556
0.9997791561496394
0.999778948511284
0.999778839302054
0.9997788371761509
0
0
0.9997032897687308
0.9997030939142107
0.999702831325078
0.999702507505689
0.999702130378446
0.9997017085341379
0.9997012508232034
0.9997007662765091
0.9997002637940681
0.9996997520623998
0.999699239399025
0.9996987336376569
0.9996982420638949
0.9996977713686354
0.9996973276303693
0.9996969163211841
0.9996965423267712
0.9996962099744492
0.9996959230669599
0.9996956849196896
0.9996954983990335
0.9996953659606
0.9996952896862948
0.9996952713197967
0.9996953122998962
0.9996954137915615
0.9996955767144862
0.9996958017691847
0.9996960894605249
0.9996964401188577
0.9996968539187088
0.9996973308952313
0.9996978709584229
0.9996984739053257
0.9996991394302264
0.9996998671330865
0.9997006565262173
0.999701507039434
0.999702418023708
0.9997033887535408
0.999704418428082
0.999705506171208
0.9997066510305845
0.9997078519759177
0.9997091078964238
0.9997104175977088
0.9997117797980891
0.9997131931245441
0.9997146561083206
0.9997161671803815
0.9997177246667205
0.9997193267837208
0.9997209716335855
0.9997226572000125
0.999724381344136
0.9997261418009047
0.9997279361759184
0.9997297619428783
0.9997316164416806
0.9997334968772922
0.999735400319435
0.9997373237032092
0.9997392638306768
0.9997412173735124
0.999743180876749
0.9997451507636977
0.9997471233420622
0.9997490948113081
0.9997510612712938
0.9997530187321946
0.9997549631257171
0.9997568903176117
0.9997587961214505
0.999760676313658
0.9997625266497416
0.9997643428816739
0.9997661207763565
0.9997678561350856
0.9997695448139262
0.9997711827448832
0.9997727659577662
0.9997742906025956
0.999775752972437
0.9997771495264914
0.9997784769133086
0.9997797319939398
0.9997809118648916
0.9997820138806838
0.9997830356758822
0.9997839751864029
0.9997848306699747
0.9997856007255649
0.9997862843116762
0.9997868807633421
0.9997873898077559
0.9997878115783885
0.9997881466275752
0.9997883959374554
0.9997885609292911
0.9997886434710803
0.999788645883543
0.9997885709444162
0.9997884218911686
0.9997882024220855
0.9997879166958302
0.999787569329406
0.9997871653945621
0.9997867104124483
0.999786210346381
0.9997856715922809
0.9997851009663523
0.9997845056889506
0.9997838933632215
0.9997832719468206
0.9997826497160592
0.999782035218029
0.9997814372046615
0.9997808645458179
0.9997803261454093
0.9997798308298164
0.9997793872576687
0.9997790038616668
0.9997786889168397
0.9997784505532131
0.9997782967869143
0.9997782333799616
0
0
0.9997040100279465
0.9997037293520836
0.9997034006262955
0.9997030276987193
0.9997026161167789
0.9997021721713382
0.9997017028634863
0.9997012154996084
0.999700717428372
0.9997002159213041
0.9996997180227561
0.9996992304567209
0.9996987595426409
0.9996983111410515
0.9996978906274961
0.999697502884077
0.9996971523038
0.9996968428056996
0.9996965778572225
0.9996963605009539
0.9996961933836808
0.9996960787866307
0.9996960186557003
0.9996960146310253
0.9996960680752326
0.999696180100159
0.9996963515916635
0.9996965832325394
0.9996968755233105
0.9996972288010356
0.9996976432560075
0.9996981189465237
0.9996986558116654
0.9996992536823035
0.9996999122902818
0.99970063127602
0.9997014101944962
0.9997022485198568
0.9997031456486233
0.9997041009017389
0.9997051135254319
0.9997061826911315
0.9997073074944194
0.9997084869532431
0.9997097200053807
0.9997110055053728
0.9997123422209149
0.9997137288289218
0.9997151639112571
0.9997166459503275
0.9997181733245523
0.9997197443038852
0.9997213570454058
0.9997230095891592
0.999724699854251
0.9997264256353756
0.9997281845997824
0.9997299742848526
0.9997317920962897
0.9997336353070834
0.9997355010572537
0.9997373863545169
0.9997392880758815
0.999741202970296
0.9997431276623573
0.9997450586571754
0.9997469923464013
0.9997489250154894
0.9997508528521913
0.999752771956327
0.9997546783508152
0.9997565679939824
0.9997584367931173
0.9997602806192574
0.9997620953231562
0.9997638767523855
0.9997656207695017
0.9997673232712024
0.9997689802083696
0.9997705876069083
0.9997721415892522
0.9997736383964086
0.9997750744104137
0.9997764461770289
0.9997777504285499
0.9997789841065335
0.9997801443843108
0.9997812286890801
0.9997822347234486
0.9997831604862171
0.9997840042922842
0.9997847647914729
0.9997854409861748
0.9997860322476316
0.9997865383307786
0.9997869593874907
0.9997872959781945
0.9997875490817121
0.9997877201033425
0.9997878108810714
0.9997878236899543
0.9997877612445777
0.9997876266996693
0.9997874236487642
0.9997871561209789
0.9997868285757611
0.9997864458955964
0.9997860133764293
0.999785536715614
0.9997850219968625
0.9997844756716984
0.9997839045366145
0.9997833157049997
0.9997827165717712
0.9997821147690789
0.9997815181128654
0.9997809345396995
0.999780372025698
0.9997798384939347
0.9997793417319646
0.9997788893218015
0.9997784885882224
0.9997781464809151
0.9997778693603692
0.9997776633450455
0.9997775326311361
0
0
0.999704780067952
0.9997044120816146
0.9997040129538277
0.9997035852583069
0.9997031324371759
0.9997026591201016
0.9997021706583714
0.9997016728013565
0.9997011715085247
0.999700672776647
0.9997001824986251
0.999699706364709
0.9996992497789299
0.9996988178049261
0.9996984151297549
0.9996980460443572
0.9996977144383737
0.9996974238056722
0.9996971772569779
0.9996969775377463
0.9996968270494103
0.9996967278726717
0.9996966817915487
0.9996966903175416
0.999696754713161
0.9996968760145476
0.9996970550527086
0.9996972924733375
0.9996975887549167
0.9996979442252107
0.9996983590759483
0.9996988333758716
0.9996993670820256
0.9996999600494949
0.9997006120395027
0.9997013227260956
0.9997020917013542
0.9997029184793613
0.9997038024988761
0.9997047431249583
0.9997057396494774
0.9997067912907764
0.9997078971924152
0.9997090564212474
0.9997102679647921
0.9997115307281202
0.9997128435302272
0.9997142051001183
0.9997156140725695
0.999717068983785
0.999718568266925
0.9997201102477118
0.9997216931400961
0.9997233150421798
0.9997249739323826
0.9997266676660461
0.9997283939724562
0.9997301504524724
0.9997319345767516
0.9997337436847353
0.9997355749843945
0.9997374255528867
0.9997392923381149
0.9997411721613311
0.9997430617207693
0.9997449575964298
0.9997468562559946
0.9997487540619735
0.9997506472800537
0.9997525320887215
0.999754404590117
0.9997562608221701
0.9997580967719537
0.9997599083902726
0.9997616916074149
0.9997634423500357
0.9997651565590946
0.9997668302087795
0.999768459326312
0.9997700400125391
0.999771568463189
0.9997730409906608
0.9997744540462111
0.9997758042423808
0.9997770883755125
0.9997783034481804
0.9997794466913805
0.99978051558628
0.9997815078853878
0.999782421632928
0.9997832551842996
0.9997840072243935
0.9997846767846826
0.9997852632588635
0.9997857664169898
0.9997861864178936
0.9997865238198792
0.9997867795894995
0.9997869551084301
0.99978705217829
0.9997870730234417
0.9997870202916334
0.9997868970525416
0.9997867067940593
0.9997864534163778
0.9997861412236617
0.9997857749132917
0.999785359562362
0.9997849006112683
0.9997844038438867
0.9997838753638786
0.9997833215662146
0.9997827491032975
0.999782164844763
0.9997815758293902
0.9997809892071223
0.9997804121725351
0.9997798518919844
0.9997793154204587
0.9997788096166329
0.9997783410517881
0.9997779159268451
0.9997775399810487
0.999777218201897
0.9997769548037492
0.9997767528477117
0
0
0.9997055807758153
0.999705124849649
0.9997046529602738
0.9997041665503511
0.9997036675257059
0.9997031591933023
0.9997026454662927
0.9997021307793749
0.9997016198595816
0.9997011175587935
0.9997006287233285
0.9997001580926058
0.9996997102191095
0.9996992894106809
0.9996988996889588
0.9996985447646616
0.9996982280254427
0.999697952533555
0.9996977210310088
0.9996975359505329
0.9996973994302857
0.9996973133311525
0.9996972792553901
0.9996972985659943
0.9996973724059379
0.999697501717009
0.9996976872576951
0.9996979296200694
0.9996982292453048
0.9996985864379072
0.9996990013784108
0.9996994741347078
0.9997000046718194
0.9997005928603366
0.9997012384833773
0.9997019412423053
0.9997027007610938
0.9997035165895896
0.9997043882055753
0.9997053150158876
0.9997062963565077
0.9997073314918721
0.9997084196133345
0.9997095598370256
0.9997107512010359
0.9997119926621812
0.999713283092268
0.9997146212741169
0.9997160058972706
0.9997174355536322
0.9997189087329725
0.9997204238185401
0.9997219790827194
0.9997235726829667
0.9997252026579713
0.9997268669242627
0.9997285632732187
0.9997302893686859
0.9997320427451672
0.9997338208067788
0.999735620826937
0.9997374399489574
0.9997392751875338
0.9997411234312525
0.9997429814461226
0.9997448458802476
0.9997467132696113
0.9997485800450949
0.9997504425406755
0.9997522970029007
0.9997541396015861
0.9997559664417894
0.9997577735769987
0.9997595570235605
0.9997613127762592
0.9997630368250442
0.9997647251728015
0.9997663738541173
0.9997679789549285
0.9997695366329572
0.9997710431388128
0.9997724948376269
0.9997738882310824
0.9997752199796756
0.9997764869250657
0.9997776861123138
0.9997788148118734
0.9997798705411094
0.9997808510852113
0.9997817545172671
0.9997825792173761
0.9997833238905667
0.9997839875834141
0.9997845696991321
0.9997850700110651
0.9997854886743639
0.9997858262358061
0.9997860836415666
0.9997862622429279
0.9997863637997583
0.9997863904817753
0.9997863448674277
0.9997862299404373
0.9997860490838165
0.9997858060713904
0.9997855050565955
0.9997851505585277
0.9997847474449149
0.999784300911851
0.9997838164598072
0.9997832998656192
0.9997827571497153
0.9997821945378857
0.9997816184167878
0.9997810352829676
0.99978045168433
0.9997798741526075
0.9997793091295172
0.9997787628872161
0.9997782414451222
0.9997777504707376
0.9997772951642196
0.9997768801381733
0.9997765093025593
0.9997761853587388
0.9997759103215228
0
0
0.9997063955624643
0.9997058523101093
0.9997053065754737
0.999704758927813
0.9997042101907295
0.9997036625430741
0.9997031187242778
0.9997025820598873
0.9997020561930328
0.9997015449612409
0.9997010522687009
0.9997005819887511
0.9997001378861565
0.9996997235587104
0.9996993423945901
0.9996989975440854
0.9996986919023488
0.9996984281017949
0.9996982085118497
0.9996980352443878
0.9996979101630975
0.9996978348958241
0.9996978108486203
0.9996978392209271
0.9996979210209915
0.9996980570812947
0.9996982480733567
0.9996984945218955
0.9996987968178918
0.9996991552306664
0.9996995699186494
0.9997000409390213
0.9997005682559819
0.9997011517478813
0.9997017912130125
0.9997024863743305
0.9997032368829235
0.9997040423205206
0.9997049022008814
0.9997058159703558
0.9997067830074703
0.9997078026218363
0.9997088740522451
0.9997099964642404
0.9997111689470433
0.9997123905101135
0.9997136600792358
0.9997149764924051
0.9997163384954068
0.9997177447373587
0.9997191937661225
0.9997206840238467
0.9997222138425432
0.9997237814399632
0.999725384915685
0.9997270222476586
0.999728691289132
0.9997303897662011
0.9997321152759029
0.9997338652850858
0.9997356371299874
0.9997374280167287
0.9997392350226652
0.9997410550987863
0.9997428850730967
0.9997447216551606
0.9997465614417351
0.9997484009236443
0.9997502364938242
0.9997520644566558
0.9997538810385082
0.999755682399578
0.9997574646469367
0.999759223848833
0.999760956050148
0.9997626572890171
0.9997643236144937
0.9997659511052315
0.9997675358890454
0.9997690741632828
0.999770562215858
0.9997719964468296
0.9997733733903742
0.999774689736993
0.9997759423557947
0.9997771283166641
0.999778244912157
0.9997792896789068
0.9997802604183842
0.9997811552167837
0.9997819724638956
0.9997827108707164
0.9997833694856958
0.9997839477093635
0.9997844453072642
0.9997848624209588
0.9997851995770517
0.9997854576940154
0.9997856380868081
0.9997857424690751
0.9997857729529519
0.9997857320462713
0.9997856226472122
0.9997854480361792
0.999785211864946
0.999784918142808
0.9997845712197408
0.9997841757662267
0.9997837367496674
0.9997832594068943
0.9997827492125542
0.999782211842807
0.9997816531340056
0.9997810790354852
0.9997804955560794
0.999779908704439
0.9997793244226469
0.9997787485129314
0.9997781865562302
0.9997776438263641
0.9997771251902206
0.9997766350061692
0.9997761769310601
0.9997757539422983
0.9997753676678227
0.9997750192693237
0
0
0.9997072100380755
0.9997065808250853
0.9997059610956246
0.9997053508004486
0.9997047499469347
0.9997041597969805
0.9997035821483944
0.9997030193774288
0.9997024741922943
0.9997019495405067
0.9997014484837301
0.999700974110477
0.9997005294619619
0.9997001174757623
0.9996997409431493
0.9996994024789299
0.9996991045015258
0.9996988492219708
0.9996986386396252
0.9996984745434251
0.9996983585171103
0.9996982919475544
0.9996982760349731
0.999698311804525
0.9996984001184169
0.9996985416883019
0.9996987370873149
0.9996989867617303
0.9996992910417578
0.9996996501515943
0.9997000642183558
0.9997005332800917
0.9997010572925853
0.9997016361351942
0.999702269615473
0.9997029574728786
0.9997036993813231
0.9997044949508892
0.9997053437285053
0.9997062451978951
0.9997071987786105
0.9997082038244779
0.9997092596212644
0.9997103653839033
0.9997115202530913
0.999712723291585
0.9997139734800357
0.9997152697126724
0.9997166107926796
0.9997179954275817
0.9997194222244871
0.999720889685494
0.9997223962031196
0.999723940056055
0.9997255194051058
0.9997271322896191
0.9997287766242648
0.9997304501964559
0.9997321506642913
0.9997338755552907
0.999735622265809
0.9997373880613859
0.9997391700779267
0.9997409653239474
0.9997427706837863
0.9997445829219874
0.9997463986887651
0.9997482145267264
0.9997500268787538
0.999751832097199
0.9997536264542854
0.9997554061538259
0.9997571673441558
0.9997589061323422
0.9997606185995621
0.9997623008176592
0.9997639488667677
0.9997655588539678
0.9997671269328419
0.9997686493238521
0.9997701223353967
0.9997715423854256
0.9997729060234504
0.9997742099527979
0.9997754510529338
0.9997766264016639
0.9997777332970469
0.9997787692787902
0.9997797321489718
0.9997806199918426
0.999781431192559
0.9997821644545937
0.9997828188157029
0.999783393662184
0.9997838887413427
0.9997843041719063
0.9997846404523376
0.9997848984667993
0.9997850794887607
0.9997851851820088
0.9997852175990881
0.9997851791769445
0.9997850727298137
0.9997849014391218
0.9997846688404511
0.9997843788073021
0.9997840355316768
0.9997836435011592
0.999783207472459
0.9997827324410146
0.9997822236065297
0.9997816863339003
0.9997811261094135
0.999780548491728
0.9997799590572798
0.9997793633397262
0.9997787667634808
0.9997781745717232
0.9997775917458199
0.9997770229198296
0.9997764722738158
0.9997759434562133
0.9997754393691971
0.9997749622225978
0.999774512862658
0.9997740918449888
0
0
0.9997080116223143
0.9997072982700864
0.9997066050732075
0.9997059315332693
0.999705277028305
0.999704642103136