# vtk DataFile Version 2.0
2D-ADE data file 
ASCII
DATASET RECTILINEAR_GRID
DIMENSIONS 128 128 1
X_COORDINATES 128 int
0 1 2 3 4 5 6 7 8 9 10 11 12 13 14 15 16 17 18 19 20 21 22 23 24 25 26 27 28 29 30 31 32 33 34 35 36 37 38 39 40 41 42 43 44 45 46 47 48 49 50 51 52 53 54 55 56 57 58 59 60 61 62 63 64 65 66 67 68 69 70 71 72 73 74 75 76 77 78 79 80 81 82 83 84 85 86 87 88 89 90 91 92 93 94 95 96 97 98 99 100 101 102 103 104 105 106 107 108 109 110 111 112 113 114 115 116 117 118 119 120 121 122 123 124 125 126 127 
Y_COORDINATES 128 int
0 1 2 3 4 5 6 7 8 9 10 11 12 13 14 15 16 17 18 19 20 21 22 23 24 25 26 27 28 29 30 31 32 33 34 35 36 37 38 39 40 41 42 43 44 45 46 47 48 49 50 51 52 53 54 55 56 57 58 59 60 61 62 63 64 65 66 67 68 69 70 71 72 73 74 75 76 77 78 79 80 81 82 83 84 85 86 87 88 89 90 91 92 93 94 95 96 97 98 99 100 101 102 103 104 105 106 107 108 109 110 111 112 113 114 115 116 117 118 119 120 121 122 123 124 125 126 127 
Z_COORDINATES 1 int
0
POINT_DATA 16384 
SCALARS density double 1
LOOKUP_TABLE default
1.000000e+000 
1.000000e+000 
1.000000e+000 
1.000000e+000 
1.000000e+000 
1.000000e+000 
1.000000e+000 
1.000000e+000 
1.000000e+000 
1.000000e+000 
1.000000e+000 
1.000000e+000 
1.000000e+000 
1.000000e+000 
1.000000e+000 
1.000000e+000 
1.000000e+000 
1.000000e+000 
1.000000e+000 
1.000000e+000 
1.000000e+000 
1.000000e+000 
1.000000e+000 
1.000000e+000 
1.000000e+000 
1.000000e+000 
1.000000e+000 
1.000000e+000 
1.000000e+000 
1.000000e+000 
1.000000e+000 
1.000000e+000 
1.000000e+000 
1.000000e+000 
1.000000e+000 
1.000000e+000 
1.000000e+000 
1.000000e+000 
1.000000e+000 
1.000000e+000 
1.000000e+000 
1.000000e+000 
1.000000e+000 
1.000000e+000 
1.000000e+000 
1.000000e+000 
1.000000e+000 
1.000000e+000 
1.000000e+000 
1.000000e+000 
1.000000e+000 
1.000000e+000 
1.000000e+000 
1.000000e+000 
1.000000e+000 
1.000000e+000 
1.000000e+000 
1.000000e+000 
1.000000e+000 
1.000000e+000 
1.000000e+000 
1.000000e+000 
1.000000e+000 
1.000000e+000 
1.000000e+000 
1.000000e+000 
1.000000e+000 
1.000000e+000 
1.000000e+000 
1.000000e+000 
1.000000e+000 
1.000000e+000 
1.000000e+000 
1.000000e+000 
1.000000e+000 
1.000000e+000 
1.000000e+000 
1.000000e+000 
1.000000e+000 
1.000000e+000 
1.000000e+000 
1.000000e+000 
1.000000e+000 
1.000000e+000 
1.000000e+000 
1.000000e+000 
1.000000e+000 
1.000000e+000 
1.000000e+000 
1.000000e+000 
1.000000e+000 
1.000000e+000 
1.000000e+000 
1.000000e+000 
1.000000e+000 
1.000000e+000 
1.000000e+000 
1.000000e+000 
1.000000e+000 
1.000000e+000 
1.000000e+000 
1.000000e+000 
1.000000e+000 
1.000000e+000 
1.000000e+000 
1.000000e+000 
1.000000e+000 
1.000000e+000 
1.000000e+000 
1.000000e+000 
1.000000e+000 
1.000000e+000 
1.000000e+000 
1.000000e+000 
1.000000e+000 
1.000000e+000 
1.000000e+000 
1.000000e+000 
1.000000e+000 
1.000000e+000 
1.000000e+000 
1.000000e+000 
1.000000e+000 
1.000000e+000 
1.000000e+000 
1.000000e+000 
1.000000e+000 
1.000000e+000 
1.000000e+000 
1.522808e-004 
1.523214e-004 
1.524094e-004 
1.523852e-004 
1.523649e-004 
1.523918e-004 
1.524132e-004 
1.523594e-004 
1.523093e-004 
1.522803e-004 
1.522541e-004 
1.521622e-004 
1.520856e-004 
1.520495e-004 
1.520005e-004 
1.518896e-004 
1.518349e-004 
1.518188e-004 
1.517482e-004 
1.516512e-004 
1.516451e-004 
1.516257e-004 
1.515292e-004 
1.514707e-004 
1.514859e-004 
1.514145e-004 
1.512978e-004 
1.512686e-004 
1.512356e-004 
1.510787e-004 
1.509522e-004 
1.509013e-004 
1.507499e-004 
1.505111e-004 
1.503691e-004 
1.502207e-004 
1.499211e-004 
1.496297e-004 
1.494348e-004 
1.491257e-004 
1.487033e-004 
1.483804e-004 
1.480712e-004 
1.475870e-004 
1.470998e-004 
1.467296e-004 
1.462530e-004 
1.456383e-004 
1.451325e-004 
1.446639e-004 
1.440142e-004 
1.433475e-004 
1.428227e-004 
1.422069e-004 
1.414407e-004 
1.407869e-004 
1.402004e-004 
1.394372e-004 
1.386499e-004 
1.380231e-004 
1.373320e-004 
1.364889e-004 
1.357608e-004 
1.351272e-004 
1.343362e-004 
1.335169e-004 
1.328703e-004 
1.321879e-004 
1.313630e-004 
1.306484e-004 
1.300478e-004 
1.293139e-004 
1.285501e-004 
1.279570e-004 
1.273540e-004 
1.266227e-004 
1.259915e-004 
1.254821e-004 
1.248683e-004 
1.242248e-004 
1.237428e-004 
1.232732e-004 
1.226982e-004 
1.222109e-004 
1.218494e-004 
1.214140e-004 
1.209550e-004 
1.206423e-004 
1.203626e-004 
1.199990e-004 
1.197108e-004 
1.195411e-004 
1.193238e-004 
1.190807e-004 
1.189623e-004 
1.188803e-004 
1.187288e-004 
1.186252e-004 
1.186233e-004 
1.185797e-004 
1.185017e-004 
1.185091e-004 
1.185490e-004 
1.185161e-004 
1.185039e-004 
1.185599e-004 
1.185837e-004 
1.185551e-004 
1.185812e-004 
1.186256e-004 
1.186170e-004 
1.185974e-004 
1.186287e-004 
1.186408e-004 
1.186220e-004 
1.186142e-004 
1.186368e-004 
1.186440e-004 
1.186426e-004 
1.186385e-004 
1.186699e-004 
1.187098e-004 
1.187031e-004 
1.186779e-004 
1.187347e-004 
1.187647e-004 
1.000000e+000 
1.000000e+000 
1.523384e-004 
1.523058e-004 
1.523675e-004 
1.523812e-004 
1.523596e-004 
1.523330e-004 
1.523503e-004 
1.523088e-004 
1.522626e-004 
1.521981e-004 
1.521679e-004 
1.520936e-004 
1.520238e-004 
1.519463e-004 
1.519040e-004 
1.518246e-004 
1.517555e-004 
1.516957e-004 
1.516607e-004 
1.515879e-004 
1.515352e-004 
1.514973e-004 
1.514605e-004 
1.513887e-004 
1.513450e-004 
1.513035e-004 
1.512381e-004 
1.511485e-004 
1.510855e-004 
1.509994e-004 
1.508765e-004 
1.507441e-004 
1.506236e-004 
1.504556e-004 
1.502540e-004 
1.500539e-004 
1.498418e-004 
1.495696e-004 
1.492791e-004 
1.489911e-004 
1.486661e-004 
1.482848e-004 
1.479038e-004 
1.475150e-004 
1.470710e-004 
1.465894e-004 
1.461215e-004 
1.456261e-004 
1.450710e-004 
1.445064e-004 
1.439563e-004 
1.433566e-004 
1.427110e-004 
1.420849e-004 
1.414577e-004 
1.407669e-004 
1.400637e-004 
1.393968e-004 
1.387005e-004 
1.379487e-004 
1.372281e-004 
1.365357e-004 
1.357873e-004 
1.350209e-004 
1.343175e-004 
1.336078e-004 
1.328398e-004 
1.321092e-004 
1.314386e-004 
1.307204e-004 
1.299794e-004 
1.293192e-004 
1.286774e-004 
1.279728e-004 
1.273078e-004 
1.267251e-004 
1.261071e-004 
1.254586e-004 
1.249029e-004 
1.243853e-004 
1.238084e-004 
1.232678e-004 
1.228286e-004 
1.223679e-004 
1.218767e-004 
1.214809e-004 
1.211444e-004 
1.207545e-004 
1.203993e-004 
1.201506e-004 
1.198987e-004 
1.196111e-004 
1.194147e-004 
1.192819e-004 
1.191052e-004 
1.189437e-004 
1.188841e-004 
1.188205e-004 
1.187169e-004 
1.186738e-004 
1.186931e-004 
1.186575e-004 
1.186208e-004 
1.186530e-004 
1.186856e-004 
1.186548e-004 
1.186672e-004 
1.187152e-004 
1.187182e-004 
1.186894e-004 
1.187253e-004 
1.187426e-004 
1.187129e-004 
1.186997e-004 
1.187360e-004 
1.187104e-004 
1.186823e-004 
1.187019e-004 
1.187200e-004 
1.186747e-004 
1.186933e-004 
1.187371e-004 
1.187083e-004 
1.186792e-004 
1.187474e-004 
1.187446e-004 
1.000000e+000 
1.000000e+000 
1.523763e-004 
1.523798e-004 
1.523069e-004 
1.523259e-004 
1.523711e-004 
1.523347e-004 
1.522720e-004 
1.522509e-004 
1.522372e-004 
1.521607e-004 
1.520700e-004 
1.520267e-004 
1.519859e-004 
1.518783e-004 
1.517905e-004 
1.517658e-004 
1.517068e-004 
1.515930e-004 
1.515506e-004 
1.515437e-004 
1.514580e-004 
1.513698e-004 
1.513750e-004 
1.513422e-004 
1.512275e-004 
1.511787e-004 
1.511802e-004 
1.510727e-004 
1.509402e-004 
1.509049e-004 
1.508255e-004 
1.506256e-004 
1.504843e-004 
1.503980e-004 
1.501802e-004 
1.499078e-004 
1.497415e-004 
1.495286e-004 
1.491671e-004 
1.488545e-004 
1.486136e-004 
1.482285e-004 
1.477676e-004 
1.474229e-004 
1.470451e-004 
1.464995e-004 
1.459973e-004 
1.455878e-004 
1.450372e-004 
1.443943e-004 
1.438787e-004 
1.433503e-004 
1.426489e-004 
1.419850e-004 
1.414353e-004 
1.407587e-004 
1.399834e-004 
1.393416e-004 
1.387128e-004 
1.379194e-004 
1.371606e-004 
1.365327e-004 
1.358034e-004 
1.349789e-004 
1.342902e-004 
1.336384e-004 
1.328432e-004 
1.320803e-004 
1.314563e-004 
1.307590e-004 
1.299773e-004 
1.293243e-004 
1.287251e-004 
1.280082e-004 
1.273203e-004 
1.267672e-004 
1.261676e-004 
1.254981e-004 
1.249445e-004 
1.244544e-004 
1.238762e-004 
1.233249e-004 
1.228999e-004 
1.224536e-004 
1.219566e-004 
1.215620e-004 
1.212373e-004 
1.208532e-004 
1.204959e-004 
1.202514e-004 
1.200051e-004 
1.197224e-004 
1.195251e-004 
1.193934e-004 
1.192206e-004 
1.190646e-004 
1.189998e-004 
1.189361e-004 
1.188379e-004 
1.187967e-004 
1.188057e-004 
1.187745e-004 
1.187422e-004 
1.187686e-004 
1.187917e-004 
1.187722e-004 
1.187799e-004 
1.188166e-004 
1.188195e-004 
1.188022e-004 
1.188162e-004 
1.188291e-004 
1.188119e-004 
1.187921e-004 
1.187928e-004 
1.187902e-004 
1.187708e-004 
1.187439e-004 
1.187443e-004 
1.187601e-004 
1.187365e-004 
1.187016e-004 
1.187399e-004 
1.187734e-004 
1.186928e-004 
1.186648e-004 
1.000000e+000 
1.000000e+000 
1.522904e-004 
1.523295e-004 
1.523305e-004 
1.523233e-004 
1.523100e-004 
1.523031e-004 
1.522695e-004 
1.522218e-004 
1.521638e-004 
1.521202e-004 
1.520524e-004 
1.519702e-004 
1.518969e-004 
1.518437e-004 
1.517601e-004 
1.516756e-004 
1.516212e-004 
1.515729e-004 
1.514894e-004 
1.514286e-004 
1.513996e-004 
1.513471e-004 
1.512682e-004 
1.512321e-004 
1.512012e-004 
1.511211e-004 
1.510397e-004 
1.510003e-004 
1.509219e-004 
1.507921e-004 
1.506906e-004 
1.506006e-004 
1.504338e-004 
1.502437e-004 
1.500944e-004 
1.499048e-004 
1.496318e-004 
1.493795e-004 
1.491469e-004 
1.488259e-004 
1.484560e-004 
1.481376e-004 
1.477865e-004 
1.473324e-004 
1.468900e-004 
1.464903e-004 
1.459995e-004 
1.454409e-004 
1.449457e-004 
1.444401e-004 
1.438170e-004 
1.431996e-004 
1.426518e-004 
1.420231e-004 
1.413093e-004 
1.406730e-004 
1.400554e-004 
1.393160e-004 
1.385760e-004 
1.379361e-004 
1.372341e-004 
1.364370e-004 
1.357292e-004 
1.350744e-004 
1.343022e-004 
1.335243e-004 
1.328730e-004 
1.321845e-004 
1.313949e-004 
1.307012e-004 
1.300899e-004 
1.293711e-004 
1.286394e-004 
1.280507e-004 
1.274478e-004 
1.267427e-004 
1.261313e-004 
1.256240e-004 
1.250235e-004 
1.244044e-004 
1.239340e-004 
1.234729e-004 
1.229154e-004 
1.224463e-004 
1.220953e-004 
1.216722e-004 
1.212272e-004 
1.209288e-004 
1.206593e-004 
1.203050e-004 
1.200259e-004 
1.198688e-004 
1.196569e-004 
1.194171e-004 
1.193054e-004 
1.192323e-004 
1.190776e-004 
1.189744e-004 
1.189777e-004 
1.189355e-004 
1.188471e-004 
1.188564e-004 
1.188974e-004 
1.188569e-004 
1.188326e-004 
1.188938e-004 
1.189096e-004 
1.188666e-004 
1.188851e-004 
1.189341e-004 
1.189020e-004 
1.188684e-004 
1.188994e-004 
1.189018e-004 
1.188422e-004 
1.188340e-004 
1.188541e-004 
1.188178e-004 
1.187743e-004 
1.187970e-004 
1.187953e-004 
1.187541e-004 
1.187565e-004 
1.187873e-004 
1.187569e-004 
1.187399e-004 
1.000000e+000 
1.000000e+000 
1.522455e-004 
1.522577e-004 
1.523283e-004 
1.523332e-004 
1.522785e-004 
1.522635e-004 
1.522630e-004 
1.522131e-004 
1.521232e-004 
1.520729e-004 
1.520357e-004 
1.519466e-004 
1.518379e-004 
1.517926e-004 
1.517420e-004 
1.516306e-004 
1.515474e-004 
1.515311e-004 
1.514630e-004 
1.513568e-004 
1.513265e-004 
1.513156e-004 
1.512186e-004 
1.511419e-004 
1.511431e-004 
1.510864e-004 
1.509604e-004 
1.509113e-004 
1.508798e-004 
1.507373e-004 
1.505924e-004 
1.505304e-004 
1.503951e-004 
1.501630e-004 
1.499995e-004 
1.498572e-004 
1.495806e-004 
1.492838e-004 
1.490745e-004 
1.487901e-004 
1.483860e-004 
1.480480e-004 
1.477416e-004 
1.472929e-004 
1.468096e-004 
1.464243e-004 
1.459722e-004 
1.453905e-004 
1.448723e-004 
1.444021e-004 
1.437938e-004 
1.431438e-004 
1.425993e-004 
1.420057e-004 
1.412839e-004 
1.406240e-004 
1.400273e-004 
1.393100e-004 
1.385513e-004 
1.379025e-004 
1.372267e-004 
1.364384e-004 
1.357104e-004 
1.350579e-004 
1.343116e-004 
1.335324e-004 
1.328611e-004 
1.321848e-004 
1.314201e-004 
1.307129e-004 
1.300846e-004 
1.293918e-004 
1.286772e-004 
1.280607e-004 
1.274551e-004 
1.267878e-004 
1.261729e-004 
1.256329e-004 
1.250557e-004 
1.244702e-004 
1.239699e-004 
1.234925e-004 
1.229810e-004 
1.225189e-004 
1.221253e-004 
1.217196e-004 
1.213196e-004 
1.209929e-004 
1.206960e-004 
1.203881e-004 
1.201248e-004 
1.199201e-004 
1.197167e-004 
1.195256e-004 
1.193903e-004 
1.192810e-004 
1.191669e-004 
1.190850e-004 
1.190412e-004 
1.189969e-004 
1.189561e-004 
1.189476e-004 
1.189485e-004 
1.189396e-004 
1.189408e-004 
1.189577e-004 
1.189649e-004 
1.189658e-004 
1.189721e-004 
1.189785e-004 
1.189748e-004 
1.189664e-004 
1.189532e-004 
1.189448e-004 
1.189325e-004 
1.189040e-004 
1.188777e-004 
1.188798e-004 
1.188614e-004 
1.188155e-004 
1.188154e-004 
1.188468e-004 
1.188065e-004 
1.187708e-004 
1.188351e-004 
1.188589e-004 
1.000000e+000 
1.000000e+000 
1.522370e-004 
1.522725e-004 
1.522789e-004 
1.522896e-004 
1.523044e-004 
1.522753e-004 
1.522182e-004 
1.521826e-004 
1.521486e-004 
1.520647e-004 
1.519749e-004 
1.519255e-004 
1.518606e-004 
1.517495e-004 
1.516715e-004 
1.516328e-004 
1.515497e-004 
1.514475e-004 
1.514105e-004 
1.513769e-004 
1.512810e-004 
1.512133e-004 
1.512069e-004 
1.511468e-004 
1.510421e-004 
1.510070e-004 
1.509815e-004 
1.508625e-004 
1.507523e-004 
1.507130e-004 
1.506059e-004 
1.504167e-004 
1.502945e-004 
1.501884e-004 
1.499584e-004 
1.497114e-004 
1.495491e-004 
1.493140e-004 
1.489619e-004 
1.486742e-004 
1.484224e-004 
1.480266e-004 
1.475901e-004 
1.472582e-004 
1.468644e-004 
1.463254e-004 
1.458497e-004 
1.454396e-004 
1.448793e-004 
1.442560e-004 
1.437596e-004 
1.432240e-004 
1.425240e-004 
1.418845e-004 
1.413450e-004 
1.406615e-004 
1.398971e-004 
1.392793e-004 
1.386538e-004 
1.378560e-004 
1.371153e-004 
1.365085e-004 
1.357757e-004 
1.349507e-004 
1.342869e-004 
1.336493e-004 
1.328431e-004 
1.320887e-004 
1.314940e-004 
1.307972e-004 
1.300028e-004 
1.293736e-004 
1.287989e-004 
1.280668e-004 
1.273781e-004 
1.268619e-004 
1.262693e-004 
1.255792e-004 
1.250482e-004 
1.245931e-004 
1.240000e-004 
1.234419e-004 
1.230586e-004 
1.226265e-004 
1.221047e-004 
1.217294e-004 
1.214451e-004 
1.210476e-004 
1.206763e-004 
1.204714e-004 
1.202417e-004 
1.199303e-004 
1.197433e-004 
1.196498e-004 
1.194627e-004 
1.192847e-004 
1.192499e-004 
1.192019e-004 
1.190713e-004 
1.190299e-004 
1.190705e-004 
1.190261e-004 
1.189648e-004 
1.190123e-004 
1.190496e-004 
1.189980e-004 
1.189968e-004 
1.190618e-004 
1.190521e-004 
1.190026e-004 
1.190315e-004 
1.190597e-004 
1.190056e-004 
1.189725e-004 
1.190010e-004 
1.189812e-004 
1.189174e-004 
1.189106e-004 
1.189259e-004 
1.188857e-004 
1.188509e-004 
1.188704e-004 
1.188783e-004 
1.188570e-004 
1.188727e-004 
1.189082e-004 
1.000000e+000 
1.000000e+000 
1.521906e-004 
1.522685e-004 
1.522766e-004 
1.522753e-004 
1.522969e-004 
1.522835e-004 
1.522257e-004 
1.521717e-004 
1.521397e-004 
1.520750e-004 
1.519740e-004 
1.519011e-004 
1.518531e-004 
1.517573e-004 
1.516505e-004 
1.516009e-004 
1.515485e-004 
1.514414e-004 
1.513694e-004 
1.513493e-004 
1.512806e-004 
1.511838e-004 
1.511557e-004 
1.511294e-004 
1.510304e-004 
1.509541e-004 
1.509343e-004 
1.508519e-004 
1.507192e-004 
1.506473e-004 
1.505727e-004 
1.504029e-004 
1.502384e-004 
1.501263e-004 
1.499411e-004 
1.496838e-004 
1.494790e-004 
1.492701e-004 
1.489534e-004 
1.486273e-004 
1.483542e-004 
1.480077e-004 
1.475782e-004 
1.471954e-004 
1.468154e-004 
1.463277e-004 
1.458229e-004 
1.453733e-004 
1.448613e-004 
1.442660e-004 
1.437133e-004 
1.431731e-004 
1.425383e-004 
1.418846e-004 
1.412868e-004 
1.406446e-004 
1.399311e-004 
1.392561e-004 
1.386037e-004 
1.378811e-004 
1.371451e-004 
1.364627e-004 
1.357587e-004 
1.350062e-004 
1.342886e-004 
1.336005e-004 
1.328738e-004 
1.321440e-004 
1.314605e-004 
1.307766e-004 
1.300717e-004 
1.293961e-004 
1.287508e-004 
1.280972e-004 
1.274518e-004 
1.268408e-004 
1.262455e-004 
1.256558e-004 
1.250902e-004 
1.245515e-004 
1.240314e-004 
1.235317e-004 
1.230562e-004 
1.226080e-004 
1.221895e-004 
1.217932e-004 
1.214199e-004 
1.210845e-004 
1.207806e-004 
1.204919e-004 
1.202343e-004 
1.200204e-004 
1.198251e-004 
1.196429e-004 
1.195026e-004 
1.193945e-004 
1.192882e-004 
1.192023e-004 
1.191573e-004 
1.191192e-004 
1.190758e-004 
1.190616e-004 
1.190695e-004 
1.190599e-004 
1.190525e-004 
1.190732e-004 
1.190864e-004 
1.190749e-004 
1.190812e-004 
1.190992e-004 
1.190853e-004 
1.190643e-004 
1.190720e-004 
1.190614e-004 
1.190194e-004 
1.190065e-004 
1.190096e-004 
1.189662e-004 
1.189312e-004 
1.189506e-004 
1.189400e-004 
1.188911e-004 
1.189158e-004 
1.189629e-004 
1.189377e-004 
1.189493e-004 
1.000000e+000 
1.000000e+000 
1.521753e-004 
1.522270e-004 
1.522878e-004 
1.523154e-004 
1.522851e-004 
1.522632e-004 
1.522648e-004 
1.522118e-004 
1.521160e-004 
1.520660e-004 
1.520273e-004 
1.519181e-004 
1.518096e-004 
1.517710e-004 
1.517042e-004 
1.515746e-004 
1.515048e-004 
1.514864e-004 
1.513922e-004 
1.512825e-004 
1.512692e-004 
1.512401e-004 
1.511199e-004 
1.510566e-004 
1.510655e-004 
1.509785e-004 
1.508452e-004 
1.508186e-004 
1.507774e-004 
1.506051e-004 
1.504742e-004 
1.504309e-004 
1.502694e-004 
1.500226e-004 
1.498896e-004 
1.497495e-004 
1.494407e-004 
1.491542e-004 
1.489780e-004 
1.486740e-004 
1.482479e-004 
1.479443e-004 
1.476557e-004 
1.471722e-004 
1.466923e-004 
1.463518e-004 
1.458902e-004 
1.452759e-004 
1.447918e-004 
1.443552e-004 
1.437114e-004 
1.430528e-004 
1.425627e-004 
1.419714e-004 
1.412064e-004 
1.405755e-004 
1.400280e-004 
1.392764e-004 
1.384951e-004 
1.379062e-004 
1.372454e-004 
1.364034e-004 
1.356955e-004 
1.351042e-004 
1.343257e-004 
1.335084e-004 
1.328973e-004 
1.322466e-004 
1.314195e-004 
1.307207e-004 
1.301615e-004 
1.294401e-004 
1.286750e-004 
1.281162e-004 
1.275462e-004 
1.268144e-004 
1.261991e-004 
1.257337e-004 
1.251364e-004 
1.244957e-004 
1.240502e-004 
1.236179e-004 
1.230469e-004 
1.225787e-004 
1.222612e-004 
1.218449e-004 
1.213895e-004 
1.211106e-004 
1.208632e-004 
1.205020e-004 
1.202257e-004 
1.200901e-004 
1.198826e-004 
1.196357e-004 
1.195358e-004 
1.194731e-004 
1.193123e-004 
1.192082e-004 
1.192221e-004 
1.191778e-004 
1.190830e-004 
1.190956e-004 
1.191403e-004 
1.190923e-004 
1.190660e-004 
1.191293e-004 
1.191440e-004 
1.190946e-004 
1.191129e-004 
1.191613e-004 
1.191288e-004 
1.190884e-004 
1.191168e-004 
1.191205e-004 
1.190612e-004 
1.190381e-004 
1.190573e-004 
1.190301e-004 
1.189795e-004 
1.189806e-004 
1.189977e-004 
1.189758e-004 
1.189645e-004 
1.190005e-004 
1.190362e-004 
1.190565e-004 
1.000000e+000 
1.000000e+000 
1.521832e-004 
1.522282e-004 
1.522844e-004 
1.523284e-004 
1.523240e-004 
1.522920e-004 
1.522675e-004 
1.522372e-004 
1.521671e-004 
1.520842e-004 
1.520270e-004 
1.519587e-004 
1.518524e-004 
1.517665e-004 
1.517119e-004 
1.516245e-004 
1.515212e-004 
1.514670e-004 
1.514178e-004 
1.513244e-004 
1.512519e-004 
1.512244e-004 
1.511617e-004 
1.510695e-004 
1.510239e-004 
1.509847e-004 
1.508861e-004 
1.507911e-004 
1.507360e-004 
1.506384e-004 
1.504895e-004 
1.503714e-004 
1.502557e-004 
1.500680e-004 
1.498617e-004 
1.496868e-004 
1.494680e-004 
1.491826e-004 
1.489111e-004 
1.486437e-004 
1.483038e-004 
1.479291e-004 
1.475791e-004 
1.471957e-004 
1.467424e-004 
1.462888e-004 
1.458459e-004 
1.453444e-004 
1.447988e-004 
1.442716e-004 
1.437301e-004 
1.431278e-004 
1.425121e-004 
1.419152e-004 
1.412852e-004 
1.406093e-004 
1.399434e-004 
1.392884e-004 
1.385930e-004 
1.378730e-004 
1.371793e-004 
1.364871e-004 
1.357544e-004 
1.350220e-004 
1.343273e-004 
1.336206e-004 
1.328801e-004 
1.321701e-004 
1.314982e-004 
1.307954e-004 
1.300808e-004 
1.294262e-004 
1.287887e-004 
1.281097e-004 
1.274604e-004 
1.268803e-004 
1.262809e-004 
1.256578e-004 
1.251096e-004 
1.246049e-004 
1.240557e-004 
1.235331e-004 
1.231027e-004 
1.226671e-004 
1.222006e-004 
1.218161e-004 
1.214957e-004 
1.211333e-004 
1.207916e-004 
1.205530e-004 
1.203207e-004 
1.200514e-004 
1.198583e-004 
1.197370e-004 
1.195743e-004 
1.194179e-004 
1.193568e-004 
1.193042e-004 
1.192027e-004 
1.191562e-004 
1.191739e-004 
1.191449e-004 
1.190987e-004 
1.191273e-004 
1.191591e-004 
1.191274e-004 
1.191245e-004 
1.191749e-004 
1.191735e-004 
1.191358e-004 
1.191574e-004 
1.191824e-004 
1.191369e-004 
1.191088e-004 
1.191363e-004 
1.191154e-004 
1.190545e-004 
1.190600e-004 
1.190780e-004 
1.190277e-004 
1.190075e-004 
1.190567e-004 
1.190578e-004 
1.190356e-004 
1.191049e-004 
1.191787e-004 
1.000000e+000 
1.000000e+000 
1.521758e-004 
1.522867e-004 
1.523208e-004 
1.523207e-004 
1.523585e-004 
1.523664e-004 
1.522956e-004 
1.522423e-004 
1.522315e-004 
1.521552e-004 
1.520319e-004 
1.519789e-004 
1.519376e-004 
1.518081e-004 
1.516973e-004 
1.516758e-004 
1.516028e-004 
1.514619e-004 
1.514120e-004 
1.514063e-004 
1.512935e-004 
1.511856e-004 
1.511946e-004 
1.511517e-004 
1.510055e-004 
1.509528e-004 
1.509605e-004 
1.508300e-004 
1.506754e-004 
1.506530e-004 
1.505721e-004 
1.503439e-004 
1.502018e-004 
1.501366e-004 
1.499038e-004 
1.496123e-004 
1.494686e-004 
1.492703e-004 
1.488847e-004 
1.485759e-004 
1.483700e-004 
1.479814e-004 
1.475018e-004 
1.471876e-004 
1.468375e-004 
1.462719e-004 
1.457733e-004 
1.454091e-004 
1.448634e-004 
1.442006e-004 
1.437176e-004 
1.432274e-004 
1.425086e-004 
1.418457e-004 
1.413470e-004 
1.406827e-004 
1.398850e-004 
1.392755e-004 
1.386910e-004 
1.378817e-004 
1.371193e-004 
1.365430e-004 
1.358283e-004 
1.349775e-004 
1.343153e-004 
1.337070e-004 
1.328933e-004 
1.321200e-004 
1.315418e-004 
1.308569e-004 
1.300449e-004 
1.294123e-004 
1.288530e-004 
1.281178e-004 
1.274178e-004 
1.269080e-004 
1.263225e-004 
1.256277e-004 
1.250958e-004 
1.246474e-004 
1.240584e-004 
1.235022e-004 
1.231217e-004 
1.226946e-004 
1.221813e-004 
1.218109e-004 
1.215267e-004 
1.211377e-004 
1.207782e-004 
1.205728e-004 
1.203429e-004 
1.200458e-004 
1.198654e-004 
1.197642e-004 
1.195829e-004 
1.194196e-004 
1.193796e-004 
1.193241e-004 
1.192071e-004 
1.191720e-004 
1.191987e-004 
1.191566e-004 
1.191108e-004 
1.191518e-004 
1.191785e-004 
1.191413e-004 
1.191480e-004 
1.191995e-004 
1.191932e-004 
1.191623e-004 
1.191864e-004 
1.192067e-004 
1.191706e-004 
1.191474e-004 
1.191636e-004 
1.191522e-004 
1.191100e-004 
1.190984e-004 
1.191105e-004 
1.190958e-004 
1.190732e-004 
1.190898e-004 
1.191248e-004 
1.191373e-004 
1.191606e-004 
1.192321e-004 
1.000000e+000 
1.000000e+000 
1.521997e-004 
1.522979e-004 
1.523680e-004 
1.523910e-004 
1.523927e-004 
1.523955e-004 
1.523769e-004 
1.523144e-004 
1.522514e-004 
1.522074e-004 
1.521309e-004 
1.520244e-004 
1.519519e-004 
1.518906e-004 
1.517848e-004 
1.516854e-004 
1.516349e-004 
1.515646e-004 
1.514586e-004 
1.513958e-004 
1.513618e-004 
1.512781e-004 
1.511884e-004 
1.511551e-004 
1.511053e-004 
1.509982e-004 
1.509208e-004 
1.508785e-004 
1.507739e-004 
1.506335e-004 
1.505438e-004 
1.504408e-004 
1.502539e-004 
1.500719e-004 
1.499313e-004 
1.497234e-004 
1.494472e-004 
1.492133e-004 
1.489800e-004 
1.486462e-004 
1.482906e-004 
1.479884e-004 
1.476300e-004 
1.471771e-004 
1.467573e-004 
1.463643e-004 
1.458688e-004 
1.453253e-004 
1.448496e-004 
1.443442e-004 
1.437263e-004 
1.431296e-004 
1.425933e-004 
1.419664e-004 
1.412669e-004 
1.406482e-004 
1.400374e-004 
1.393058e-004 
1.385813e-004 
1.379532e-004 
1.372584e-004 
1.364707e-004 
1.357736e-004 
1.351275e-004 
1.343618e-004 
1.335883e-004 
1.329439e-004 
1.322630e-004 
1.314742e-004 
1.307804e-004 
1.301774e-004 
1.294628e-004 
1.287259e-004 
1.281409e-004 
1.275494e-004 
1.268423e-004 
1.262279e-004 
1.257347e-004 
1.251440e-004 
1.245200e-004 
1.240589e-004 
1.236185e-004 
1.230644e-004 
1.225961e-004 
1.222675e-004 
1.218606e-004 
1.214139e-004 
1.211280e-004 
1.208834e-004 
1.205330e-004 
1.202541e-004 
1.201176e-004 
1.199200e-004 
1.196740e-004 
1.195698e-004 
1.195150e-004 
1.193591e-004 
1.192487e-004 
1.192657e-004 
1.192308e-004 
1.191315e-004 
1.191410e-004 
1.191967e-004 
1.191510e-004 
1.191174e-004 
1.191889e-004 
1.192144e-004 
1.191590e-004 
1.191792e-004 
1.192448e-004 
1.192132e-004 
1.191676e-004 
1.192145e-004 
1.192306e-004 
1.191610e-004 
1.191498e-004 
1.191964e-004 
1.191613e-004 
1.191065e-004 
1.191465e-004 
1.191765e-004 
1.191324e-004 
1.191513e-004 
1.192368e-004 
1.192612e-004 
1.192796e-004 
1.000000e+000 
1.000000e+000 
1.522822e-004 
1.523322e-004 
1.524005e-004 
1.524810e-004 
1.524730e-004 
1.524293e-004 
1.524425e-004 
1.524237e-004 
1.523169e-004 
1.522446e-004 
1.522262e-004 
1.521287e-004 
1.519907e-004 
1.519446e-004 
1.519007e-004 
1.517575e-004 
1.516568e-004 
1.516503e-004 
1.515668e-004 
1.514237e-004 
1.513954e-004 
1.513885e-004 
1.512560e-004 
1.511561e-004 
1.511738e-004 
1.511021e-004 
1.509357e-004 
1.508895e-004 
1.508734e-004 
1.506956e-004 
1.505272e-004 
1.504914e-004 
1.503532e-004 
1.500795e-004 
1.499250e-004 
1.498131e-004 
1.495090e-004 
1.491882e-004 
1.490175e-004 
1.487435e-004 
1.482996e-004 
1.479735e-004 
1.477119e-004 
1.472422e-004 
1.467334e-004 
1.463933e-004 
1.459630e-004 
1.453410e-004 
1.448339e-004 
1.444172e-004 
1.437931e-004 
1.431137e-004 
1.426167e-004 
1.420521e-004 
1.412898e-004 
1.406375e-004 
1.400983e-004 
1.393683e-004 
1.385764e-004 
1.379726e-004 
1.373276e-004 
1.364966e-004 
1.357701e-004 
1.351707e-004 
1.344094e-004 
1.335911e-004 
1.329560e-004 
1.323040e-004 
1.314928e-004 
1.307795e-004 
1.301947e-004 
1.294830e-004 
1.287280e-004 
1.281408e-004 
1.275547e-004 
1.268450e-004 
1.262258e-004 
1.257260e-004 
1.251351e-004 
1.245197e-004 
1.240509e-004 
1.235958e-004 
1.230554e-004 
1.225981e-004 
1.222455e-004 
1.218345e-004 
1.214174e-004 
1.211231e-004 
1.208491e-004 
1.205214e-004 
1.202661e-004 
1.200959e-004 
1.198890e-004 
1.196842e-004 
1.195739e-004 
1.194802e-004 
1.193490e-004 
1.192701e-004 
1.192504e-004 
1.192008e-004 
1.191475e-004 
1.191548e-004 
1.191675e-004 
1.191452e-004 
1.191487e-004 
1.191845e-004 
1.191924e-004 
1.191857e-004 
1.192081e-004 
1.192293e-004 
1.192220e-004 
1.192182e-004 
1.192291e-004 
1.192273e-004 
1.192121e-004 
1.192033e-004 
1.192026e-004 
1.191985e-004 
1.191881e-004 
1.191845e-004 
1.192022e-004 
1.192219e-004 
1.192332e-004 
1.192682e-004 
1.193359e-004 
1.193950e-004 
1.000000e+000 
1.000000e+000 
1.523238e-004 
1.524254e-004 
1.524844e-004 
1.525234e-004 
1.525619e-004 
1.525556e-004 
1.525053e-004 
1.524766e-004 
1.524490e-004 
1.523579e-004 
1.522627e-004 
1.522183e-004 
1.521420e-004 
1.520126e-004 
1.519351e-004 
1.518936e-004 
1.517846e-004 
1.516694e-004 
1.516364e-004 
1.515847e-004 
1.514603e-004 
1.513912e-004 
1.513823e-004 
1.512922e-004 
1.511692e-004 
1.511407e-004 
1.511006e-004 
1.509512e-004 
1.508393e-004 
1.508059e-004 
1.506744e-004 
1.504668e-004 
1.503569e-004 
1.502488e-004 
1.499931e-004 
1.497463e-004 
1.496011e-004 
1.493539e-004 
1.489849e-004 
1.487138e-004 
1.484735e-004 
1.480596e-004 
1.476215e-004 
1.473138e-004 
1.469201e-004 
1.463646e-004 
1.459029e-004 
1.455142e-004 
1.449427e-004 
1.443122e-004 
1.438405e-004 
1.433157e-004 
1.425986e-004 
1.419656e-004 
1.414534e-004 
1.407659e-004 
1.399862e-004 
1.393888e-004 
1.387823e-004 
1.379658e-004 
1.372196e-004 
1.366402e-004 
1.359069e-004 
1.350549e-004 
1.344005e-004 
1.337835e-004 
1.329526e-004 
1.321766e-004 
1.316036e-004 
1.309058e-004 
1.300727e-004 
1.294417e-004 
1.288882e-004 
1.281296e-004 
1.274109e-004 
1.269157e-004 
1.263280e-004 
1.255999e-004 
1.250677e-004 
1.246421e-004 
1.240318e-004 
1.234488e-004 
1.230937e-004 
1.226780e-004 
1.221281e-004 
1.217579e-004 
1.215105e-004 
1.211058e-004 
1.207160e-004 
1.205414e-004 
1.203328e-004 
1.199990e-004 
1.198166e-004 
1.197577e-004 
1.195658e-004 
1.193696e-004 
1.193590e-004 
1.193297e-004 
1.191785e-004 
1.191376e-004 
1.192073e-004 
1.191605e-004 
1.190823e-004 
1.191503e-004 
1.192084e-004 
1.191431e-004 
1.191433e-004 
1.192403e-004 
1.192377e-004 
1.191778e-004 
1.192307e-004 
1.192896e-004 
1.192308e-004 
1.192035e-004 
1.192719e-004 
1.192687e-004 
1.191978e-004 
1.192219e-004 
1.192788e-004 
1.192377e-004 
1.192150e-004 
1.192934e-004 
1.193328e-004 
1.193142e-004 
1.193868e-004 
1.195049e-004 
1.000000e+000 
1.000000e+000 
1.523770e-004 
1.525304e-004 
1.526094e-004 
1.526014e-004 
1.526351e-004 
1.526831e-004 
1.526304e-004 
1.525524e-004 
1.525462e-004 
1.525027e-004 
1.523709e-004 
1.522910e-004 
1.522670e-004 
1.521550e-004 
1.520151e-004 
1.519783e-004 
1.519303e-004 
1.517834e-004 
1.516964e-004 
1.516955e-004 
1.516025e-004 
1.514643e-004 
1.514459e-004 
1.514256e-004 
1.512797e-004 
1.511838e-004 
1.511884e-004 
1.510849e-004 
1.509050e-004 
1.508468e-004 
1.507890e-004 
1.505738e-004 
1.503887e-004 
1.503132e-004 
1.501167e-004 
1.498120e-004 
1.496267e-004 
1.494491e-004 
1.490916e-004 
1.487454e-004 
1.485192e-004 
1.481718e-004 
1.476943e-004 
1.473339e-004 
1.469953e-004 
1.464702e-004 
1.459430e-004 
1.455451e-004 
1.450382e-004 
1.443935e-004 
1.438618e-004 
1.433674e-004 
1.426968e-004 
1.420179e-004 
1.414713e-004 
1.408362e-004 
1.400723e-004 
1.394149e-004 
1.388060e-004 
1.380471e-004 
1.372826e-004 
1.366444e-004 
1.359422e-004 
1.351367e-004 
1.344287e-004 
1.337725e-004 
1.330039e-004 
1.322408e-004 
1.315884e-004 
1.308955e-004 
1.301360e-004 
1.294632e-004 
1.288369e-004 
1.281401e-004 
1.274650e-004 
1.268781e-004 
1.262709e-004 
1.256376e-004 
1.250797e-004 
1.245581e-004 
1.240059e-004 
1.234923e-004 
1.230439e-004 
1.225905e-004 
1.221471e-004 
1.217685e-004 
1.214143e-004 
1.210601e-004 
1.207559e-004 
1.204951e-004 
1.202363e-004 
1.200095e-004 
1.198339e-004 
1.196675e-004 
1.195143e-004 
1.194101e-004 
1.193260e-004 
1.192386e-004 
1.191859e-004 
1.191649e-004 
1.191334e-004 
1.191120e-004 
1.191267e-004 
1.191371e-004 
1.191327e-004 
1.191549e-004 
1.191876e-004 
1.191927e-004 
1.192031e-004 
1.192368e-004 
1.192482e-004 
1.192415e-004 
1.192606e-004 
1.192770e-004 
1.192618e-004 
1.192621e-004 
1.192843e-004 
1.192778e-004 
1.192684e-004 
1.192984e-004 
1.193210e-004 
1.193216e-004 
1.193642e-004 
1.194304e-004 
1.194650e-004 
1.195236e-004 
1.000000e+000 
1.000000e+000 
1.525230e-004 
1.525996e-004 
1.526900e-004 
1.527691e-004 
1.527655e-004 
1.527456e-004 
1.527677e-004 
1.527339e-004 
1.526330e-004 
1.525872e-004 