# vtk DataFile Version 2.0
2D-ADE data file 
ASCII
DATASET RECTILINEAR_GRID
DIMENSIONS 128 128 1
X_COORDINATES 128 int
0 1 2 3 4 5 6 7 8 9 10 11 12 13 14 15 16 17 18 19 20 21 22 23 24 25 26 27 28 29 30 31 32 33 34 35 36 37 38 39 40 41 42 43 44 45 46 47 48 49 50 51 52 53 54 55 56 57 58 59 60 61 62 63 64 65 66 67 68 69 70 71 72 73 74 75 76 77 78 79 80 81 82 83 84 85 86 87 88 89 90 91 92 93 94 95 96 97 98 99 100 101 102 103 104 105 106 107 108 109 110 111 112 113 114 115 116 117 118 119 120 121 122 123 124 125 126 127 
Y_COORDINATES 128 int
0 1 2 3 4 5 6 7 8 9 10 11 12 13 14 15 16 17 18 19 20 21 22 23 24 25 26 27 28 29 30 31 32 33 34 35 36 37 38 39 40 41 42 43 44 45 46 47 48 49 50 51 52 53 54 55 56 57 58 59 60 61 62 63 64 65 66 67 68 69 70 71 72 73 74 75 76 77 78 79 80 81 82 83 84 85 86 87 88 89 90 91 92 93 94 95 96 97 98 99 100 101 102 103 104 105 106 107 108 109 110 111 112 113 114 115 116 117 118 119 120 121 122 123 124 125 126 127 
Z_COORDINATES 1 int
0
POINT_DATA 16384 
SCALARS density double 1
LOOKUP_TABLE default
1.000000e+000 
1.000000e+000 
1.000000e+000 
1.000000e+000 
1.000000e+000 
1.000000e+000 
1.000000e+000 
1.000000e+000 
1.000000e+000 
1.000000e+000 
1.000000e+000 
1.000000e+000 
1.000000e+000 
1.000000e+000 
1.000000e+000 
1.000000e+000 
1.000000e+000 
1.000000e+000 
1.000000e+000 
1.000000e+000 
1.000000e+000 
1.000000e+000 
1.000000e+000 
1.000000e+000 
1.000000e+000 
1.000000e+000 
1.000000e+000 
1.000000e+000 
1.000000e+000 
1.000000e+000 
1.000000e+000 
1.000000e+000 
1.000000e+000 
1.000000e+000 
1.000000e+000 
1.000000e+000 
1.000000e+000 
1.000000e+000 
1.000000e+000 
1.000000e+000 
1.000000e+000 
1.000000e+000 
1.000000e+000 
1.000000e+000 
1.000000e+000 
1.000000e+000 
1.000000e+000 
1.000000e+000 
1.000000e+000 
1.000000e+000 
1.000000e+000 
1.000000e+000 
1.000000e+000 
1.000000e+000 
1.000000e+000 
1.000000e+000 
1.000000e+000 
1.000000e+000 
1.000000e+000 
1.000000e+000 
1.000000e+000 
1.000000e+000 
1.000000e+000 
1.000000e+000 
1.000000e+000 
1.000000e+000 
1.000000e+000 
1.000000e+000 
1.000000e+000 
1.000000e+000 
1.000000e+000 
1.000000e+000 
1.000000e+000 
1.000000e+000 
1.000000e+000 
1.000000e+000 
1.000000e+000 
1.000000e+000 
1.000000e+000 
1.000000e+000 
1.000000e+000 
1.000000e+000 
1.000000e+000 
1.000000e+000 
1.000000e+000 
1.000000e+000 
1.000000e+000 
1.000000e+000 
1.000000e+000 
1.000000e+000 
1.000000e+000 
1.000000e+000 
1.000000e+000 
1.000000e+000 
1.000000e+000 
1.000000e+000 
1.000000e+000 
1.000000e+000 
1.000000e+000 
1.000000e+000 
1.000000e+000 
1.000000e+000 
1.000000e+000 
1.000000e+000 
1.000000e+000 
1.000000e+000 
1.000000e+000 
1.000000e+000 
1.000000e+000 
1.000000e+000 
1.000000e+000 
1.000000e+000 
1.000000e+000 
1.000000e+000 
1.000000e+000 
1.000000e+000 
1.000000e+000 
1.000000e+000 
1.000000e+000 
1.000000e+000 
1.000000e+000 
1.000000e+000 
1.000000e+000 
1.000000e+000 
1.000000e+000 
1.000000e+000 
1.000000e+000 
1.000000e+000 
1.000000e+000 
1.402788e-004 
1.402398e-004 
1.402334e-004 
1.402782e-004 
1.403315e-004 
1.404498e-004 
1.406292e-004 
1.408115e-004 
1.410054e-004 
1.412591e-004 
1.415436e-004 
1.417959e-004 
1.420900e-004 
1.424339e-004 
1.427708e-004 
1.430824e-004 
1.434708e-004 
1.438789e-004 
1.442554e-004 
1.446471e-004 
1.451268e-004 
1.455785e-004 
1.460058e-004 
1.464970e-004 
1.470453e-004 
1.475248e-004 
1.480226e-004 
1.486064e-004 
1.491821e-004 
1.496838e-004 
1.502610e-004 
1.508950e-004 
1.514527e-004 
1.519789e-004 
1.526124e-004 
1.532235e-004 
1.537276e-004 
1.542696e-004 
1.548891e-004 
1.553914e-004 
1.558160e-004 
1.563273e-004 
1.568190e-004 
1.571354e-004 
1.574480e-004 
1.578273e-004 
1.580611e-004 
1.581371e-004 
1.582759e-004 
1.583800e-004 
1.582535e-004 
1.580569e-004 
1.579230e-004 
1.576170e-004 
1.570948e-004 
1.566045e-004 
1.560914e-004 
1.553203e-004 
1.544495e-004 
1.536551e-004 
1.527179e-004 
1.515619e-004 
1.504583e-004 
1.493900e-004 
1.481224e-004 
1.467973e-004 
1.456217e-004 
1.444051e-004 
1.430652e-004 
1.418625e-004 
1.408118e-004 
1.396998e-004 
1.386467e-004 
1.378503e-004 
1.371562e-004 
1.364833e-004 
1.360477e-004 
1.358709e-004 
1.357693e-004 
1.358258e-004 
1.361916e-004 
1.367426e-004 
1.373927e-004 
1.382935e-004 
1.394490e-004 
1.407093e-004 
1.421051e-004 
1.437392e-004 
1.455029e-004 
1.473184e-004 
1.492653e-004 
1.513492e-004 
1.534393e-004 
1.555493e-004 
1.577307e-004 
1.599219e-004 
1.620384e-004 
1.641477e-004 
1.662382e-004 
1.682437e-004 
1.701405e-004 
1.720015e-004 
1.737621e-004 
1.754004e-004 
1.769256e-004 
1.783903e-004 
1.797064e-004 
1.809126e-004 
1.820094e-004 
1.830328e-004 
1.838945e-004 
1.846831e-004 
1.853593e-004 
1.859644e-004 
1.864131e-004 
1.868250e-004 
1.871111e-004 
1.873388e-004 
1.874176e-004 
1.874862e-004 
1.874220e-004 
1.873246e-004 
1.871100e-004 
1.869301e-004 
1.867616e-004 
1.866799e-004 
1.000000e+000 
1.000000e+000 
1.402993e-004 
1.402629e-004 
1.402487e-004 
1.403195e-004 
1.403788e-004 
1.404749e-004 
1.406305e-004 
1.408214e-004 
1.410092e-004 
1.412248e-004 
1.415021e-004 
1.417613e-004 
1.420373e-004 
1.423445e-004 
1.426937e-004 
1.430036e-004 
1.433615e-004 
1.437459e-004 
1.441447e-004 
1.445154e-004 
1.449585e-004 
1.454051e-004 
1.458491e-004 
1.462962e-004 
1.468145e-004 
1.473047e-004 
1.477982e-004 
1.483222e-004 
1.488873e-004 
1.494043e-004 
1.499471e-004 
1.505225e-004 
1.510953e-004 
1.516238e-004 
1.521956e-004 
1.527715e-004 
1.533108e-004 
1.538252e-004 
1.543738e-004 
1.548834e-004 
1.553441e-004 
1.557916e-004 
1.562359e-004 
1.566063e-004 
1.569281e-004 
1.572234e-004 
1.574698e-004 
1.576261e-004 
1.577265e-004 
1.577695e-004 
1.577333e-004 
1.575989e-004 
1.573885e-004 
1.570996e-004 
1.567211e-004 
1.562322e-004 
1.556563e-004 
1.550103e-004 
1.542700e-004 
1.534139e-004 
1.525004e-004 
1.515441e-004 
1.504879e-004 
1.493534e-004 
1.482332e-004 
1.470889e-004 
1.458641e-004 
1.446627e-004 
1.435475e-004 
1.424138e-004 
1.412827e-004 
1.403063e-004 
1.394403e-004 
1.385843e-004 
1.378736e-004 
1.373989e-004 
1.370129e-004 
1.367229e-004 
1.367058e-004 
1.369047e-004 
1.371759e-004 
1.376593e-004 
1.384377e-004 
1.393403e-004 
1.403409e-004 
1.416176e-004 
1.430853e-004 
1.445918e-004 
1.462383e-004 
1.481117e-004 
1.500156e-004 
1.519283e-004 
1.539793e-004 
1.561170e-004 
1.581611e-004 
1.602262e-004 
1.623555e-004 
1.644231e-004 
1.663538e-004 
1.683167e-004 
1.702243e-004 
1.719899e-004 
1.736359e-004 
1.752973e-004 
1.767949e-004 
1.781594e-004 
1.794323e-004 
1.806837e-004 
1.817129e-004 
1.826782e-004 
1.835513e-004 
1.843724e-004 
1.849655e-004 
1.855763e-004 
1.860558e-004 
1.864808e-004 
1.867005e-004 
1.869966e-004 
1.871030e-004 
1.871856e-004 
1.871033e-004 
1.871231e-004 
1.869410e-004 
1.867991e-004 
1.866828e-004 
1.866383e-004 
1.000000e+000 
1.000000e+000 
1.402878e-004 
1.402879e-004 
1.402705e-004 
1.402860e-004 
1.403782e-004 
1.404996e-004 
1.406067e-004 
1.407734e-004 
1.409972e-004 
1.412006e-004 
1.414116e-004 
1.416961e-004 
1.419923e-004 
1.422491e-004 
1.425580e-004 
1.429268e-004 
1.432598e-004 
1.435799e-004 
1.439891e-004 
1.444104e-004 
1.447754e-004 
1.451849e-004 
1.456802e-004 
1.461253e-004 
1.465405e-004 
1.470519e-004 
1.475941e-004 
1.480479e-004 
1.485377e-004 
1.491284e-004 
1.496665e-004 
1.501333e-004 
1.507020e-004 
1.513109e-004 
1.518030e-004 
1.522939e-004 
1.529016e-004 
1.534446e-004 
1.538686e-004 
1.543715e-004 
1.549263e-004 
1.553225e-004 
1.556656e-004 
1.561165e-004 
1.564933e-004 
1.566863e-004 
1.569173e-004 
1.571946e-004 
1.572770e-004 
1.572372e-004 
1.572826e-004 
1.572422e-004 
1.569657e-004 
1.566756e-004 
1.564279e-004 
1.559692e-004 
1.553441e-004 
1.547851e-004 
1.541569e-004 
1.532885e-004 
1.523926e-004 
1.515614e-004 
1.505658e-004 
1.494292e-004 
1.483870e-004 
1.473464e-004 
1.461504e-004 
1.449854e-004 
1.439590e-004 
1.428890e-004 
1.417902e-004 
1.408665e-004 
1.400609e-004 
1.392503e-004 
1.385769e-004 
1.381310e-004 
1.377816e-004 
1.375331e-004 
1.375262e-004 
1.377219e-004 
1.380282e-004 
1.385279e-004 
1.392701e-004 
1.401639e-004 
1.411942e-004 
1.424315e-004 
1.438393e-004 
1.453510e-004 
1.469902e-004 
1.487724e-004 
1.506334e-004 
1.525497e-004 
1.545372e-004 
1.565733e-004 
1.586083e-004 
1.606437e-004 
1.626737e-004 
1.646715e-004 
1.666099e-004 
1.684971e-004 
1.703160e-004 
1.720545e-004 
1.736977e-004 
1.752566e-004 
1.767140e-004 
1.780735e-004 
1.793223e-004 
1.804784e-004 
1.815254e-004 
1.824770e-004 
1.833179e-004 
1.840765e-004 
1.847304e-004 
1.852992e-004 
1.857668e-004 
1.861687e-004 
1.864696e-004 
1.866986e-004 
1.868427e-004 
1.869342e-004 
1.869344e-004 
1.868886e-004 
1.868084e-004 
1.866900e-004 
1.865513e-004 
1.864462e-004 
1.000000e+000 
1.000000e+000 
1.402531e-004 
1.402154e-004 
1.402357e-004 
1.402635e-004 
1.403302e-004 
1.404487e-004 
1.405810e-004 
1.407278e-004 
1.409183e-004 
1.411423e-004 
1.413571e-004 
1.415996e-004 
1.418789e-004 
1.421701e-004 
1.424515e-004 
1.427753e-004 
1.431218e-004 
1.434663e-004 
1.438159e-004 
1.442137e-004 
1.446151e-004 
1.450133e-004 
1.454350e-004 
1.458958e-004 
1.463435e-004 
1.467980e-004 
1.472853e-004 
1.477916e-004 
1.482771e-004 
1.487818e-004 
1.493147e-004 
1.498436e-004 
1.503523e-004 
1.508868e-004 
1.514327e-004 
1.519537e-004 
1.524580e-004 
1.529845e-004 
1.534972e-004 
1.539659e-004 
1.544200e-004 
1.548828e-004 
1.552982e-004 
1.556523e-004 
1.559937e-004 
1.563178e-004 
1.565528e-004 
1.567190e-004 
1.568738e-004 
1.569667e-004 
1.569326e-004 
1.568440e-004 
1.567345e-004 
1.565028e-004 
1.561374e-004 
1.557536e-004 
1.553130e-004 
1.547024e-004 
1.540085e-004 
1.533289e-004 
1.525347e-004 
1.515844e-004 
1.506500e-004 
1.497261e-004 
1.486509e-004 
1.475261e-004 
1.465117e-004 
1.454663e-004 
1.443169e-004 
1.432832e-004 
1.423882e-004 
1.414356e-004 
1.405290e-004 
1.398682e-004 
1.393017e-004 
1.387305e-004 
1.383884e-004 
1.383052e-004 
1.382625e-004 
1.383478e-004 
1.387591e-004 
1.393335e-004 
1.399533e-004 
1.408261e-004 
1.419710e-004 
1.431607e-004 
1.444570e-004 
1.460235e-004 
1.477031e-004 
1.493663e-004 
1.511845e-004 
1.531619e-004 
1.550964e-004 
1.570184e-004 
1.590705e-004 
1.611136e-004 
1.630385e-004 
1.649727e-004 
1.669425e-004 
1.687718e-004 
1.704930e-004 
1.722179e-004 
1.738678e-004 
1.753324e-004 
1.767386e-004 
1.781057e-004 
1.793276e-004 
1.803946e-004 
1.814429e-004 
1.823937e-004 
1.831927e-004 
1.838953e-004 
1.845867e-004 
1.851345e-004 
1.855737e-004 
1.859590e-004 
1.863154e-004 
1.865093e-004 
1.866593e-004 
1.867676e-004 
1.868273e-004 
1.867381e-004 
1.866761e-004 
1.865897e-004 
1.864518e-004 
1.862341e-004 
1.000000e+000 
1.000000e+000 
1.402003e-004 
1.401401e-004 
1.401451e-004 
1.402136e-004 
1.402687e-004 
1.403553e-004 
1.405162e-004 
1.406803e-004 
1.408239e-004 
1.410356e-004 
1.412893e-004 
1.415071e-004 
1.417381e-004 
1.420520e-004 
1.423529e-004 
1.426180e-004 
1.429470e-004 
1.433327e-004 
1.436589e-004 
1.439940e-004 
1.444214e-004 
1.448435e-004 
1.452005e-004 
1.456314e-004 
1.461308e-004 
1.465616e-004 
1.469751e-004 
1.475029e-004 
1.480260e-004 
1.484596e-004 
1.489534e-004 
1.495400e-004 
1.500381e-004 
1.504894e-004 
1.510562e-004 
1.516301e-004 
1.520743e-004 
1.525551e-004 
1.531362e-004 
1.536163e-004 
1.539974e-004 
1.544810e-004 
1.549709e-004 
1.552917e-004 
1.555972e-004 
1.559961e-004 
1.562739e-004 
1.563960e-004 
1.565778e-004 
1.567577e-004 
1.567302e-004 
1.566289e-004 
1.565923e-004 
1.564244e-004 
1.560575e-004 
1.557057e-004 
1.553434e-004 
1.547721e-004 
1.540960e-004 
1.534684e-004 
1.527337e-004 
1.518208e-004 
1.509182e-004 
1.500339e-004 
1.490106e-004 
1.479300e-004 
1.469300e-004 
1.459119e-004 
1.448264e-004 
1.438171e-004 
1.429060e-004 
1.419991e-004 
1.411551e-004 
1.404671e-004 
1.398866e-004 
1.393935e-004 
1.390664e-004 
1.389173e-004 
1.389089e-004 
1.390667e-004 
1.394195e-004 
1.399487e-004 
1.406506e-004 
1.415306e-004 
1.425788e-004 
1.437910e-004 
1.451578e-004 
1.466491e-004 
1.482631e-004 
1.499987e-004 
1.518135e-004 
1.536797e-004 
1.556171e-004 
1.575956e-004 
1.595627e-004 
1.615254e-004 
1.634981e-004 
1.654202e-004 
1.672720e-004 
1.690845e-004 
1.708425e-004 
1.724871e-004 
1.740471e-004 
1.755424e-004 
1.769346e-004 
1.781979e-004 
1.793898e-004 
1.804941e-004 
1.814777e-004 
1.823539e-004 
1.831750e-004 
1.838891e-004 
1.844976e-004 
1.850308e-004 
1.855132e-004 
1.858783e-004 
1.861736e-004 
1.864145e-004 
1.865958e-004 
1.866649e-004 
1.867065e-004 
1.867029e-004 
1.866331e-004 
1.864790e-004 
1.862756e-004 
1.860602e-004 
1.000000e+000 
1.000000e+000 
1.400529e-004 
1.400335e-004 
1.400337e-004 
1.400909e-004 
1.401815e-004 
1.402791e-004 
1.403983e-004 
1.405696e-004 
1.407525e-004 
1.409308e-004 
1.411456e-004 
1.413992e-004 
1.416420e-004 
1.418896e-004 
1.421869e-004 
1.425000e-004 
1.427926e-004 
1.431135e-004 
1.434837e-004 
1.438422e-004 
1.441895e-004 
1.445890e-004 
1.450174e-004 
1.454140e-004 
1.458259e-004 
1.462982e-004 
1.467644e-004 
1.471977e-004 
1.476783e-004 
1.482022e-004 
1.486843e-004 
1.491557e-004 
1.496940e-004 
1.502333e-004 
1.507113e-004 
1.512157e-004 
1.517771e-004 
1.522836e-004 
1.527373e-004 
1.532495e-004 
1.537702e-004 
1.541881e-004 
1.545890e-004 
1.550501e-004 
1.554398e-004 
1.557113e-004 
1.560123e-004 
1.563241e-004 
1.564822e-004 
1.565556e-004 
1.566820e-004 
1.567215e-004 
1.565690e-004 
1.564038e-004 
1.562588e-004 
1.559219e-004 
1.554367e-004 
1.550072e-004 
1.545052e-004 
1.537698e-004 
1.530071e-004 
1.523111e-004 
1.514419e-004 
1.504176e-004 
1.495010e-004 
1.485891e-004 
1.474839e-004 
1.464062e-004 
1.455007e-004 
1.445198e-004 
1.434627e-004 
1.426209e-004 
1.419126e-004 
1.411242e-004 
1.404702e-004 
1.401089e-004 
1.397973e-004 
1.395182e-004 
1.395455e-004 
1.398008e-004 
1.400708e-004 
1.405357e-004 
1.413279e-004 
1.422165e-004 
1.431667e-004 
1.443991e-004 
1.458308e-004 
1.472631e-004 
1.488270e-004 
1.506187e-004 
1.524343e-004 
1.542294e-004 
1.561685e-004 
1.581813e-004 
1.600987e-004 
1.620149e-004 
1.640061e-004 
1.659166e-004 
1.677026e-004 
1.694970e-004 
1.712566e-004 
1.728546e-004 
1.743596e-004 
1.758501e-004 
1.772161e-004 
1.784245e-004 
1.795816e-004 
1.806805e-004 
1.816208e-004 
1.824566e-004 
1.832599e-004 
1.839662e-004 
1.845320e-004 
1.850500e-004 
1.855260e-004 
1.858885e-004 
1.861540e-004 
1.864036e-004 
1.865861e-004 
1.866647e-004 
1.866877e-004 
1.866946e-004 
1.865977e-004 
1.864445e-004 
1.862659e-004 
1.859920e-004 
1.000000e+000 
1.000000e+000 
1.398649e-004 
1.398940e-004 
1.399137e-004 
1.399417e-004 
1.400417e-004 
1.401799e-004 
1.402856e-004 
1.404279e-004 
1.406362e-004 
1.408285e-004 
1.410029e-004 
1.412471e-004 
1.415204e-004 
1.417478e-004 
1.420039e-004 
1.423345e-004 
1.426411e-004 
1.429163e-004 
1.432690e-004 
1.436583e-004 
1.439880e-004 
1.443399e-004 
1.447830e-004 
1.451988e-004 
1.455657e-004 
1.460147e-004 
1.465151e-004 
1.469382e-004 
1.473705e-004 
1.479072e-004 
1.484188e-004 
1.488547e-004 
1.493698e-004 
1.499487e-004 
1.504352e-004 
1.509029e-004 
1.514800e-004 
1.520323e-004 
1.524778e-004 
1.529783e-004 
1.535461e-004 
1.540025e-004 
1.543980e-004 
1.548813e-004 
1.553326e-004 
1.556385e-004 
1.559512e-004 
1.563093e-004 
1.565349e-004 
1.566467e-004 
1.567976e-004 
1.568956e-004 
1.568186e-004 
1.566903e-004 
1.565680e-004 
1.563040e-004 
1.558975e-004 
1.554799e-004 
1.549994e-004 
1.543594e-004 
1.536490e-004 
1.529252e-004 
1.521016e-004 
1.511796e-004 
1.502482e-004 
1.492940e-004 
1.482803e-004 
1.472589e-004 
1.462653e-004 
1.452862e-004 
1.443407e-004 
1.434565e-004 
1.426458e-004 
1.419377e-004 
1.413412e-004 
1.408494e-004 
1.405089e-004 
1.403479e-004 
1.403212e-004 
1.404465e-004 
1.407947e-004 
1.413234e-004 
1.419772e-004 
1.428326e-004 
1.439068e-004 
1.450924e-004 
1.463992e-004 
1.479105e-004 
1.495429e-004 
1.512104e-004 
1.529957e-004 
1.549062e-004 
1.568070e-004 
1.587052e-004 
1.606848e-004 
1.626587e-004 
1.645363e-004 
1.664047e-004 
1.682763e-004 
1.700311e-004 
1.716757e-004 
1.733035e-004 
1.748458e-004 
1.762298e-004 
1.775359e-004 
1.787998e-004 
1.799201e-004 
1.809096e-004 
1.818558e-004 
1.827240e-004 
1.834411e-004 
1.840871e-004 
1.846988e-004 
1.852049e-004 
1.855935e-004 
1.859623e-004 
1.862763e-004 
1.864792e-004 
1.866131e-004 
1.867420e-004 
1.867794e-004 
1.867329e-004 
1.866459e-004 
1.865054e-004 
1.862235e-004 
1.859046e-004 
1.000000e+000 
1.000000e+000 
1.396705e-004 
1.396697e-004 
1.397333e-004 
1.398140e-004 
1.398855e-004 
1.400056e-004 
1.401657e-004 
1.403117e-004 
1.404643e-004 
1.406775e-004 
1.408972e-004 
1.410903e-004 
1.413236e-004 
1.416097e-004 
1.418663e-004 
1.421157e-004 
1.424358e-004 
1.427740e-004 
1.430643e-004 
1.433920e-004 
1.437930e-004 
1.441626e-004 
1.445016e-004 
1.449230e-004 
1.453808e-004 
1.457715e-004 
1.461833e-004 
1.466926e-004 
1.471741e-004 
1.475936e-004 
1.480961e-004 
1.486613e-004 
1.491398e-004 
1.496085e-004 
1.501936e-004 
1.507622e-004 
1.512263e-004 
1.517562e-004 
1.523745e-004 
1.528857e-004 
1.533327e-004 
1.538981e-004 
1.544575e-004 
1.548547e-004 
1.552698e-004 
1.557864e-004 
1.561692e-004 
1.564072e-004 
1.567376e-004 
1.570655e-004 
1.571643e-004 
1.572071e-004 
1.573486e-004 
1.573348e-004 
1.570926e-004 
1.569044e-004 
1.567252e-004 
1.562756e-004 
1.557109e-004 
1.552555e-004 
1.546634e-004 
1.538133e-004 
1.530162e-004 
1.522831e-004 
1.513153e-004 
1.502498e-004 
1.493566e-004 
1.484183e-004 
1.472930e-004 
1.462942e-004 
1.454697e-004 
1.445338e-004 
1.436054e-004 
1.429550e-004 
1.423942e-004 
1.417846e-004 
1.414055e-004 
1.413037e-004 
1.412240e-004 
1.412587e-004 
1.416286e-004 
1.421650e-004 
1.427418e-004 
1.435709e-004 
1.446709e-004 
1.458243e-004 
1.470872e-004 
1.486093e-004 
1.502434e-004 
1.518791e-004 
1.536573e-004 
1.555761e-004 
1.574634e-004 
1.593478e-004 
1.613278e-004 
1.632929e-004 
1.651569e-004 
1.670165e-004 
1.688740e-004 
1.706093e-004 
1.722406e-004 
1.738470e-004 
1.753607e-004 
1.767234e-004 
1.780085e-004 
1.792355e-004 
1.803262e-004 
1.812950e-004 
1.822094e-004 
1.830384e-004 
1.837372e-004 
1.843613e-004 
1.849384e-004 
1.854202e-004 
1.858049e-004 
1.861497e-004 
1.864408e-004 
1.866411e-004 
1.867769e-004 
1.868858e-004 
1.869195e-004 
1.868636e-004 
1.867571e-004 
1.866163e-004 
1.863775e-004 
1.860104e-004 
1.000000e+000 
1.000000e+000 
1.394494e-004 
1.394621e-004 
1.395163e-004 
1.396325e-004 
1.397314e-004 
1.398307e-004 
1.399928e-004 
1.401736e-004 
1.403184e-004 
1.405001e-004 
1.407368e-004 
1.409498e-004 
1.411486e-004 
1.414151e-004 
1.417002e-004 
1.419446e-004 
1.422210e-004 
1.425643e-004 
1.428808e-004 
1.431780e-004 
1.435472e-004 
1.439452e-004 
1.442924e-004 
1.446702e-004 
1.451242e-004 
1.455531e-004 
1.459496e-004 
1.464230e-004 
1.469332e-004 
1.473854e-004 
1.478573e-004 
1.484147e-004 
1.489486e-004 
1.494358e-004 
1.499930e-004 
1.505947e-004 
1.511296e-004 
1.516639e-004 
1.522767e-004 
1.528658e-004 
1.533857e-004 
1.539468e-004 
1.545409e-004 
1.550548e-004 
1.555278e-004 
1.560406e-004 
1.565126e-004 
1.568849e-004 
1.572386e-004 
1.575830e-004 
1.578273e-004 
1.579808e-004 
1.581035e-004 
1.581555e-004 
1.580884e-004 
1.579377e-004 
1.577217e-004 
1.574068e-004 
1.569827e-004 
1.564686e-004 
1.558775e-004 
1.552064e-004 
1.544384e-004 
1.535892e-004 
1.527080e-004 
1.517832e-004 
1.507777e-004 
1.497585e-004 
1.487869e-004 
1.477939e-004 
1.467792e-004 
1.458746e-004 
1.450697e-004 
1.442649e-004 
1.435654e-004 
1.430819e-004 
1.426906e-004 
1.423664e-004 
1.422906e-004 
1.424370e-004 
1.426482e-004 
1.430408e-004 
1.437354e-004 
1.445582e-004 
1.454590e-004 
1.466245e-004 
1.480010e-004 
1.493979e-004 
1.509216e-004 
1.526758e-004 
1.544672e-004 
1.562337e-004 
1.581446e-004 
1.601376e-004 
1.620279e-004 
1.639078e-004 
1.658715e-004 
1.677481e-004 
1.694816e-004 
1.712246e-004 
1.729381e-004 
1.744676e-004 
1.758950e-004 
1.773180e-004 
1.786098e-004 
1.797220e-004 
1.807932e-004 
1.818148e-004 
1.826638e-004 
1.834027e-004 
1.841338e-004 
1.847663e-004 
1.852498e-004 
1.857007e-004 
1.861338e-004 
1.864411e-004 
1.866601e-004 
1.868872e-004 
1.870531e-004 
1.870955e-004 
1.871063e-004 
1.871117e-004 
1.870002e-004 
1.867716e-004 
1.864995e-004 
1.861896e-004 
1.000000e+000 
1.000000e+000 
1.391518e-004 
1.392404e-004 
1.393077e-004 
1.393945e-004 
1.395409e-004 
1.396854e-004 
1.398015e-004 
1.399718e-004 
1.401815e-004 
1.403504e-004 
1.405237e-004 
1.407742e-004 
1.410172e-004 
1.412140e-004 
1.414705e-004 
1.417890e-004 
1.420508e-004 
1.423069e-004 
1.426631e-004 
1.430241e-004 
1.433128e-004 
1.436661e-004 
1.441103e-004 
1.444898e-004 
1.448373e-004 
1.453088e-004 
1.458057e-004 
1.462020e-004 
1.466519e-004 
1.472300e-004 
1.477417e-004 
1.481848e-004 
1.487652e-004 
1.494046e-004 
1.499133e-004 
1.504465e-004 
1.511407e-004 
1.517761e-004 
1.522889e-004 
1.529297e-004 
1.536610e-004 
1.542267e-004 
1.547552e-004 
1.554538e-004 
1.560958e-004 
1.565397e-004 
1.570610e-004 
1.576841e-004 
1.580971e-004 
1.583794e-004 
1.588036e-004 
1.591637e-004 
1.592435e-004 
1.593220e-004 
1.594945e-004 
1.594252e-004 
1.591392e-004 
1.589568e-004 
1.587178e-004 
1.581621e-004 
1.575558e-004 
1.570552e-004 
1.563410e-004 
1.554033e-004 
1.545788e-004 
1.537606e-004 
1.526913e-004 
1.516140e-004 
1.507111e-004 
1.497099e-004 
1.485930e-004 
1.476716e-004 
1.468745e-004 
1.459843e-004 
1.452072e-004 
1.447013e-004 
1.442485e-004 
1.438367e-004 
1.437061e-004 
1.437925e-004 
1.439300e-004 
1.442668e-004 
1.448974e-004 
1.456516e-004 
1.465165e-004 
1.476363e-004 
1.489411e-004 
1.503106e-004 
1.518272e-004 
1.535227e-004 
1.552724e-004 
1.570588e-004 
1.589503e-004 
1.608854e-004 
1.627853e-004 
1.646896e-004 
1.666045e-004 
1.684522e-004 
1.702230e-004 
1.719530e-004 
1.736064e-004 
1.751435e-004 
1.765916e-004 
1.779586e-004 
1.792086e-004 
1.803442e-004 
1.813931e-004 
1.823441e-004 
1.831838e-004 
1.839340e-004 
1.846064e-004 
1.851899e-004 
1.856897e-004 
1.861240e-004 
1.864930e-004 
1.867935e-004 
1.870321e-004 
1.872185e-004 
1.873487e-004 
1.874209e-004 
1.874308e-004 
1.873826e-004 
1.872648e-004 
1.870884e-004 
1.868330e-004 
1.864640e-004 
1.000000e+000 
1.000000e+000 
1.388509e-004 
1.389663e-004 
1.390856e-004 
1.391820e-004 
1.393129e-004 
1.394900e-004 
1.396395e-004 
1.397825e-004 
1.399794e-004 
1.401897e-004 
1.403636e-004 
1.405670e-004 
1.408222e-004 
1.410579e-004 
1.412782e-004 
1.415585e-004 
1.418639e-004 
1.421352e-004 
1.424308e-004 
1.427907e-004 
1.431393e-004 
1.434685e-004 
1.438577e-004 
1.442861e-004 
1.446815e-004 
1.450950e-004 
1.455793e-004 
1.460647e-004 
1.465253e-004 
1.470421e-004 
1.476104e-004 
1.481530e-004 
1.487026e-004 
1.493234e-004 
1.499597e-004 
1.505673e-004 
1.512127e-004 
1.519139e-004 
1.525968e-004 
1.532622e-004 
1.539737e-004 
1.547050e-004 
1.553933e-004 
1.560690e-004 
1.567731e-004 
1.574546e-004 
1.580686e-004 
1.586589e-004 
1.592472e-004 
1.597661e-004 
1.601857e-004 
1.605674e-004 
1.609138e-004 
1.611347e-004 
1.612319e-004 
1.612942e-004 
1.612784e-004 
1.610823e-004 
1.607809e-004 
1.604618e-004 
1.600054e-004 
1.593582e-004 
1.586845e-004 
1.579936e-004 
1.571149e-004 
1.561292e-004 
1.552202e-004 
1.542555e-004 
1.531266e-004 
1.520637e-004 
1.511297e-004 
1.500983e-004 
1.490492e-004 
1.482368e-004 
1.475155e-004 
1.467332e-004 
1.461550e-004 
1.458635e-004 
1.455902e-004 
1.454054e-004 
1.455784e-004 
1.459391e-004 
1.463093e-004 
1.469450e-004 
1.479066e-004 
1.489057e-004 
1.499954e-004 
1.514088e-004 
1.529595e-004 
1.544678e-004 
1.561504e-004 
1.580385e-004 
1.598623e-004 
1.616594e-004 
1.636189e-004 
1.655743e-004 
1.673696e-004 
1.691834e-004 
1.710458e-004 
1.727396e-004 
1.742942e-004 
1.758751e-004 
1.773651e-004 
1.786409e-004 
1.798507e-004 
1.810455e-004 
1.820632e-004 
1.829235e-004 
1.837754e-004 
1.845520e-004 
1.851478e-004 
1.856806e-004 
1.862154e-004 
1.866318e-004 
1.869234e-004 
1.872229e-004 
1.874922e-004 
1.876322e-004 
1.877167e-004 
1.878218e-004 
1.878406e-004 
1.877489e-004 
1.876362e-004 
1.874826e-004 
1.871682e-004 
1.867866e-004 
1.000000e+000 
1.000000e+000 
1.385720e-004 
1.386610e-004 
1.388081e-004 
1.389838e-004 
1.391061e-004 
1.392462e-004 
1.394518e-004 
1.396313e-004 
1.397689e-004 
1.399764e-004 
1.402182e-004 
1.403950e-004 
1.405877e-004 
1.408743e-004 
1.411327e-004 
1.413364e-004 
1.416289e-004 
1.419820e-004 
1.422527e-004 
1.425356e-004 
1.429450e-004 
1.433349e-004 
1.436433e-004 
1.440553e-004 
1.445618e-004 
1.449715e-004 
1.453729e-004 
1.459366e-004 
1.465009e-004 
1.469520e-004 
1.475084e-004 
1.482052e-004 
1.487987e-004 
1.493496e-004 
1.500903e-004 
1.508650e-004 
1.514894e-004 
1.521967e-004 
1.530836e-004 
1.538641e-004 
1.545419e-004 
1.554039e-004 
1.563239e-004 
1.570421e-004 
1.577758e-004 
1.586917e-004 
1.594842e-004 
1.600831e-004 
1.608072e-004 
1.615823e-004 
1.620920e-004 
1.625135e-004 
1.630740e-004 
1.634846e-004 
1.636118e-004 
1.637780e-004 
1.639710e-004 
1.638625e-004 
1.635858e-004 
1.634015e-004 
1.630708e-004 
1.624384e-004 
1.618045e-004 
1.612052e-004 
1.603539e-004 
1.593557e-004 
1.584630e-004 
1.575008e-004 
1.563424e-004 
1.552423e-004 
1.542503e-004 
1.531573e-004 
1.520564e-004 
1.511428e-004 
1.502967e-004 
1.494474e-004 
1.487775e-004 
1.483096e-004 
1.479178e-004 
1.476767e-004 
1.476862e-004 
1.478617e-004 
1.481798e-004 
1.487288e-004 
1.494842e-004 
1.503841e-004 
1.514667e-004 
1.527353e-004 
1.541294e-004 
1.556494e-004 
1.573000e-004 
1.590271e-004 
1.608132e-004 
1.626656e-004 
1.645351e-004 
1.663893e-004 
1.682451e-004 
1.700722e-004 
1.718206e-004 
1.735077e-004 
1.751383e-004 
1.766602e-004 
1.780690e-004 
1.794023e-004 
1.806325e-004 
1.817276e-004 
1.827272e-004 
1.836485e-004 
1.844486e-004 
1.851404e-004 
1.857710e-004 
1.863217e-004 
1.867661e-004 
1.871522e-004 
1.874961e-004 
1.877598e-004 
1.879522e-004 
1.881212e-004 
1.882380e-004 
1.882788e-004 
1.882736e-004 
1.882344e-004 
1.881073e-004 
1.879147e-004 
1.876784e-004 
1.873284e-004 
1.000000e+000 
1.000000e+000 
1.382506e-004 
1.383981e-004 
1.385365e-004 
1.387216e-004 
1.389060e-004 
1.390539e-004 
1.392223e-004 
1.394342e-004 
1.396175e-004 
1.397814e-004 
1.399965e-004 
1.402349e-004 
1.404320e-004 
1.406473e-004 
1.409271e-004 
1.411984e-004 
1.414395e-004 
1.417400e-004 
1.420903e-004 
1.424051e-004 
1.427259e-004 
1.431303e-004 
1.435483e-004 
1.439282e-004 
1.443622e-004 
1.448749e-004 
1.453640e-004 
1.458437e-004 
1.464170e-004 
1.470373e-004 
1.476161e-004 
1.482353e-004 
1.489604e-004 
1.496872e-004 
1.503825e-004 
1.511666e-004 
1.520335e-004 
1.528575e-004 
1.536814e-004 
1.546192e-004 
1.555813e-004 
1.564669e-004 
1.573923e-004 
1.584151e-004 
1.593760e-004 
1.602483e-004 
1.611929e-004 
1.621645e-004 
1.629812e-004 
1.637302e-004 
1.645541e-004 
1.652836e-004 
1.657981e-004 
1.662996e-004 
1.668221e-004 
1.671123e-004 
1.672069e-004 
1.673479e-004 
1.673898e-004 
1.671181e-004 
1.667650e-004 
1.664665e-004 
1.659253e-004 
1.651239e-004 
1.643972e-004 
1.636461e-004 
1.625856e-004 
1.614668e-004 
1.605159e-004 
1.594181e-004 
1.581178e-004 
1.570091e-004 
1.560298e-004 
1.548591e-004 
1.537529e-004 
1.529757e-004 
1.522072e-004 
1.513757e-004 
1.508776e-004 
1.506498e-004 
1.503678e-004 
1.502692e-004 
1.505868e-004 
1.510011e-004 
1.514381e-004 
1.522363e-004 
1.533047e-004 
1.543431e-004 
1.555455e-004 
1.570759e-004 
1.586391e-004 
1.601666e-004 
1.619156e-004 
1.637865e-004 
1.655298e-004 
1.672927e-004 
1.691922e-004 
1.709927e-004 
1.726393e-004 
1.743315e-004 
1.760006e-004 
1.774594e-004 
1.788223e-004 
1.801971e-004 
1.814201e-004 
1.824492e-004 
1.834489e-004 
1.843959e-004 
1.851511e-004 
1.857995e-004 
1.864483e-004 
1.869921e-004 
1.873831e-004 
1.877548e-004 
1.881144e-004 
1.883502e-004 
1.885052e-004 
1.886831e-004 
1.888077e-004 
1.888164e-004 
1.887998e-004 
1.887915e-004 
1.886754e-004 
1.884455e-004 
1.881861e-004 
1.878958e-004 
1.000000e+000 
1.000000e+000 
1.378843e-004 
1.381195e-004 
1.383043e-004 
1.384522e-004 
1.386631e-004 
1.388843e-004 
1.390300e-004 
1.392018e-004 
1.394437e-004 
1.396367e-004 
1.397871e-004 
1.400273e-004 
1.402929e-004 
1.404790e-004 
1.407019e-004 
1.410298e-004 
1.413102e-004 
1.415425e-004 
1.418912e-004 
1.422919e-004 
1.425980e-004 
1.429454e-004 
1.434347e-004 
1.438840e-004 
1.442648e-004 
1.447870e-004 
1.453969e-004 
1.458999e-004 
1.464360e-004 
1.471584e-004 
1.478611e-004 
1.484714e-004 
1.492375e-004 
1.501393e-004 
1.509277e-004 
1.517242e-004 
1.527390e-004 
1.537612e-004 
1.546533e-004 
1.556816e-004 
1.568747e-004 
1.579391e-004 
1.589478e-004 
1.601572e-004 
1.613754e-004 
1.623992e-004 
1.634795e-004 
1.646995e-004 
1.657502e-004 
1.666437e-004 
1.676542e-004 
1.686343e-004 
1.693447e-004 
1.699965e-004 
1.707124e-004 
1.712148e-004 
1.714735e-004 
1.717456e-004 
1.719395e-004 
1.718367e-004 
1.716024e-004 
1.713671e-004 
1.709256e-004 
1.702496e-004 
1.695463e-004 
1.687699e-004 
1.677793e-004 
1.667021e-004 
1.656348e-004 
1.644644e-004 
1.632040e-004 
1.619830e-004 
1.607770e-004 
1.595501e-004 
1.583920e-004 
1.573292e-004 
1.563350e-004 
1.554665e-004 
1.547518e-004 
1.541644e-004 
1.537577e-004 
1.535633e-004 
1.535232e-004 
1.536703e-004 
1.540718e-004 
1.546494e-004 
1.553670e-004 
1.563212e-004 
1.574743e-004 
1.587066e-004 
1.600821e-004 
1.616491e-004 
1.632641e-004 
1.648923e-004 
1.666415e-004 
1.684380e-004 
1.701509e-004 
1.718601e-004 
1.736084e-004 
1.752510e-004 
1.767685e-004 
1.782759e-004 
1.797125e-004 
1.809699e-004 
1.821357e-004 
1.832678e-004 
1.842515e-004 
1.850791e-004 
1.858684e-004 
1.865878e-004 
1.871465e-004 
1.876274e-004 
1.880977e-004 
1.884676e-004 
1.887220e-004 
1.889716e-004 
1.891960e-004 
1.893102e-004 
1.893740e-004 
1.894556e-004 
1.894630e-004 
1.893667e-004 
1.892582e-004 
1.891337e-004 
1.888845e-004 
1.885269e-004 
1.000000e+000 
1.000000e+000 
1.375711e-004 
1.377972e-004 
1.380444e-004 
1.382530e-004 
1.384308e-004 
1.386503e-004 
1.388723e-004 
1.390406e-004 
1.392202e-004 
1.394590e-004 