# vtk DataFile Version 2.0
2D-ADE data file 
ASCII
DATASET RECTILINEAR_GRID
DIMENSIONS 128 128 1
X_COORDINATES 128 int
0 1 2 3 4 5 6 7 8 9 10 11 12 13 14 15 16 17 18 19 20 21 22 23 24 25 26 27 28 29 30 31 32 33 34 35 36 37 38 39 40 41 42 43 44 45 46 47 48 49 50 51 52 53 54 55 56 57 58 59 60 61 62 63 64 65 66 67 68 69 70 71 72 73 74 75 76 77 78 79 80 81 82 83 84 85 86 87 88 89 90 91 92 93 94 95 96 97 98 99 100 101 102 103 104 105 106 107 108 109 110 111 112 113 114 115 116 117 118 119 120 121 122 123 124 125 126 127 
Y_COORDINATES 128 int
0 1 2 3 4 5 6 7 8 9 10 11 12 13 14 15 16 17 18 19 20 21 22 23 24 25 26 27 28 29 30 31 32 33 34 35 36 37 38 39 40 41 42 43 44 45 46 47 48 49 50 51 52 53 54 55 56 57 58 59 60 61 62 63 64 65 66 67 68 69 70 71 72 73 74 75 76 77 78 79 80 81 82 83 84 85 86 87 88 89 90 91 92 93 94 95 96 97 98 99 100 101 102 103 104 105 106 107 108 109 110 111 112 113 114 115 116 117 118 119 120 121 122 123 124 125 126 127 
Z_COORDINATES 1 int
0
POINT_DATA 16384 
SCALARS density double 1
LOOKUP_TABLE default
1.000000e+000 
1.000000e+000 
1.000000e+000 
1.000000e+000 
1.000000e+000 
1.000000e+000 
1.000000e+000 
1.000000e+000 
1.000000e+000 
1.000000e+000 
1.000000e+000 
1.000000e+000 
1.000000e+000 
1.000000e+000 
1.000000e+000 
1.000000e+000 
1.000000e+000 
1.000000e+000 
1.000000e+000 
1.000000e+000 
1.000000e+000 
1.000000e+000 
1.000000e+000 
1.000000e+000 
1.000000e+000 
1.000000e+000 
1.000000e+000 
1.000000e+000 
1.000000e+000 
1.000000e+000 
1.000000e+000 
1.000000e+000 
1.000000e+000 
1.000000e+000 
1.000000e+000 
1.000000e+000 
1.000000e+000 
1.000000e+000 
1.000000e+000 
1.000000e+000 
1.000000e+000 
1.000000e+000 
1.000000e+000 
1.000000e+000 
1.000000e+000 
1.000000e+000 
1.000000e+000 
1.000000e+000 
1.000000e+000 
1.000000e+000 
1.000000e+000 
1.000000e+000 
1.000000e+000 
1.000000e+000 
1.000000e+000 
1.000000e+000 
1.000000e+000 
1.000000e+000 
1.000000e+000 
1.000000e+000 
1.000000e+000 
1.000000e+000 
1.000000e+000 
1.000000e+000 
1.000000e+000 
1.000000e+000 
1.000000e+000 
1.000000e+000 
1.000000e+000 
1.000000e+000 
1.000000e+000 
1.000000e+000 
1.000000e+000 
1.000000e+000 
1.000000e+000 
1.000000e+000 
1.000000e+000 
1.000000e+000 
1.000000e+000 
1.000000e+000 
1.000000e+000 
1.000000e+000 
1.000000e+000 
1.000000e+000 
1.000000e+000 
1.000000e+000 
1.000000e+000 
1.000000e+000 
1.000000e+000 
1.000000e+000 
1.000000e+000 
1.000000e+000 
1.000000e+000 
1.000000e+000 
1.000000e+000 
1.000000e+000 
1.000000e+000 
1.000000e+000 
1.000000e+000 
1.000000e+000 
1.000000e+000 
1.000000e+000 
1.000000e+000 
1.000000e+000 
1.000000e+000 
1.000000e+000 
1.000000e+000 
1.000000e+000 
1.000000e+000 
1.000000e+000 
1.000000e+000 
1.000000e+000 
1.000000e+000 
1.000000e+000 
1.000000e+000 
1.000000e+000 
1.000000e+000 
1.000000e+000 
1.000000e+000 
1.000000e+000 
1.000000e+000 
1.000000e+000 
1.000000e+000 
1.000000e+000 
1.000000e+000 
1.000000e+000 
1.000000e+000 
1.000000e+000 
1.000000e+000 
2.793146e-004 
2.791358e-004 
2.789157e-004 
2.785066e-004 
2.780800e-004 
2.778364e-004 
2.775325e-004 
2.771664e-004 
2.770021e-004 
2.770209e-004 
2.771564e-004 
2.772895e-004 
2.773422e-004 
2.774469e-004 
2.775565e-004 
2.773599e-004 
2.770336e-004 
2.766466e-004 
2.760943e-004 
2.755213e-004 
2.750018e-004 
2.743692e-004 
2.736843e-004 
2.730411e-004 
2.723743e-004 
2.715298e-004 
2.705309e-004 
2.695157e-004 
2.684237e-004 
2.672091e-004 
2.659860e-004 
2.646242e-004 
2.628447e-004 
2.606053e-004 
2.580218e-004 
2.551037e-004 
2.519698e-004 
2.491832e-004 
2.474467e-004 
2.470248e-004 
2.481152e-004 
2.510287e-004 
2.554492e-004 
2.604734e-004 
2.653776e-004 
2.693271e-004 
2.710986e-004 
2.698487e-004 
2.653191e-004 
2.572551e-004 
2.456266e-004 
2.310958e-004 
2.145090e-004 
1.964510e-004 
1.777050e-004 
1.592851e-004 
1.417557e-004 
1.252916e-004 
1.102607e-004 
9.688900e-005 
8.480723e-005 
7.361424e-005 
6.318876e-005 
5.307610e-005 
4.251477e-005 
3.113536e-005 
1.875094e-005 
4.844533e-006 
-1.091592e-005 
-2.828440e-005 
-4.700542e-005 
-6.691239e-005 
-8.730699e-005 
-1.071306e-004 
-1.255753e-004 
-1.418538e-004 
-1.549010e-004 
-1.639768e-004 
-1.689905e-004 
-1.700042e-004 
-1.672448e-004 
-1.616616e-004 
-1.545205e-004 
-1.467364e-004 
-1.392893e-004 
-1.333219e-004 
-1.292435e-004 
-1.268819e-004 
-1.262340e-004 
-1.270453e-004 
-1.285124e-004 
-1.300938e-004 
-1.316708e-004 
-1.330908e-004 
-1.341706e-004 
-1.350039e-004 
-1.358353e-004 
-1.367229e-004 
-1.375788e-004 
-1.384787e-004 
-1.394080e-004 
-1.401877e-004 
-1.408418e-004 
-1.415049e-004 
-1.421684e-004 
-1.427629e-004 
-1.432448e-004 
-1.437438e-004 
-1.442015e-004 
-1.444956e-004 
-1.447198e-004 
-1.448323e-004 
-1.446795e-004 
-1.446260e-004 
-1.447264e-004 
-1.448444e-004 
-1.451053e-004 
-1.456508e-004 
-1.465154e-004 
-1.477932e-004 
-1.490391e-004 
-1.500908e-004 
-1.515110e-004 
-1.529154e-004 
-1.536033e-004 
-1.540566e-004 
1.000000e+000 
1.000000e+000 
2.791963e-004 
2.790374e-004 
2.788369e-004 
2.785518e-004 
2.781007e-004 
2.777716e-004 
2.775419e-004 
2.772271e-004 
2.770602e-004 
2.769941e-004 
2.770440e-004 
2.771991e-004 
2.772809e-004 
2.772706e-004 
2.773230e-004 
2.772101e-004 
2.769552e-004 
2.765839e-004 
2.761159e-004 
2.755835e-004 
2.750278e-004 
2.743579e-004 
2.736284e-004 
2.728623e-004 
2.720825e-004 
2.712415e-004 
2.702921e-004 
2.692676e-004 
2.681775e-004 
2.669717e-004 
2.656232e-004 
2.640476e-004 
2.622087e-004 
2.600673e-004 
2.576214e-004 
2.550290e-004 
2.525248e-004 
2.503473e-004 
2.489699e-004 
2.488041e-004 
2.499656e-004 
2.524351e-004 
2.560614e-004 
2.603081e-004 
2.643648e-004 
2.673740e-004 
2.685256e-004 
2.670840e-004 
2.625234e-004 
2.546580e-004 
2.436313e-004 
2.298169e-004 
2.138184e-004 
1.964035e-004 
1.783365e-004 
1.602960e-004 
1.429017e-004 
1.266074e-004 
1.116127e-004 
9.795060e-005 
8.555422e-005 
7.416271e-005 
6.335514e-005 
5.271245e-005 
4.182063e-005 
3.019541e-005 
1.740963e-005 
3.221101e-006 
-1.249931e-005 
-2.978069e-005 
-4.838814e-005 
-6.783008e-005 
-8.749676e-005 
-1.066402e-004 
-1.243304e-004 
-1.396800e-004 
-1.519932e-004 
-1.607206e-004 
-1.655529e-004 
-1.666471e-004 
-1.645274e-004 
-1.598953e-004 
-1.536411e-004 
-1.468259e-004 
-1.404073e-004 
-1.350313e-004 
-1.310421e-004 
-1.286342e-004 
-1.277254e-004 
-1.279093e-004 
-1.287664e-004 
-1.300434e-004 
-1.313997e-004 
-1.326470e-004 
-1.338065e-004 
-1.348441e-004 
-1.357265e-004 
-1.365893e-004 
-1.374562e-004 
-1.382953e-004 
-1.390970e-004 
-1.398759e-004 
-1.406305e-004 
-1.413554e-004 
-1.420586e-004 
-1.427264e-004 
-1.432274e-004 
-1.436702e-004 
-1.440842e-004 
-1.443904e-004 
-1.445304e-004 
-1.445914e-004 
-1.445626e-004 
-1.446453e-004 
-1.447085e-004 
-1.448422e-004 
-1.452227e-004 
-1.458507e-004 
-1.467057e-004 
-1.478746e-004 
-1.489374e-004 
-1.500856e-004 
-1.515217e-004 
-1.525654e-004 
-1.531350e-004 
-1.537130e-004 
1.000000e+000 
1.000000e+000 
2.791041e-004 
2.790020e-004 
2.787231e-004 
2.785314e-004 
2.782781e-004 
2.778107e-004 
2.774204e-004 
2.772203e-004 
2.770944e-004 
2.770083e-004 
2.769602e-004 
2.770151e-004 
2.772005e-004 
2.772529e-004 
2.771410e-004 
2.770701e-004 
2.769168e-004 
2.766044e-004 
2.762726e-004 
2.757745e-004 
2.750649e-004 
2.743348e-004 
2.735914e-004 
2.727137e-004 
2.717580e-004 
2.708683e-004 
2.699882e-004 
2.689539e-004 
2.678143e-004 
2.665954e-004 
2.651278e-004 
2.633991e-004 
2.615597e-004 
2.595804e-004 
2.573630e-004 
2.550885e-004 
2.531254e-004 
2.516007e-004 
2.505833e-004 
2.505139e-004 
2.517029e-004 
2.538855e-004 
2.568296e-004 
2.603585e-004 
2.637172e-004 
2.659838e-004 
2.666191e-004 
2.649947e-004 
2.603849e-004 
2.526514e-004 
2.420707e-004 
2.287997e-004 
2.132366e-004 
1.962848e-004 
1.787248e-004 
1.609878e-004 
1.436885e-004 
1.274977e-004 
1.125383e-004 
9.868274e-005 
8.603882e-005 
7.448146e-005 
6.340747e-005 
5.238418e-005 
4.122501e-005 
2.940890e-005 
1.634618e-005 
1.949259e-006 
-1.375945e-005 
-3.096051e-005 
-4.945608e-005 
-6.855122e-005 
-8.765842e-005 
-1.062365e-004 
-1.233358e-004 
-1.379830e-004 
-1.496824e-004 
-1.580814e-004 
-1.627978e-004 
-1.639780e-004 
-1.623098e-004 
-1.584033e-004 
-1.529351e-004 
-1.469918e-004 
-1.414093e-004 
-1.364990e-004 
-1.327043e-004 
-1.303800e-004 
-1.292032e-004 
-1.288091e-004 
-1.291941e-004 
-1.301421e-004 
-1.312205e-004 
-1.322947e-004 
-1.334278e-004 
-1.345543e-004 
-1.355310e-004 
-1.363906e-004 
-1.372370e-004 
-1.380137e-004 
-1.387174e-004 
-1.395043e-004 
-1.403701e-004 
-1.411843e-004 
-1.419129e-004 
-1.426223e-004 
-1.432896e-004 
-1.437470e-004 
-1.440100e-004 
-1.442426e-004 
-1.443525e-004 
-1.444129e-004 
-1.445496e-004 
-1.445918e-004 
-1.446009e-004 
-1.448645e-004 
-1.453413e-004 
-1.459964e-004 
-1.468064e-004 
-1.477142e-004 
-1.489436e-004 
-1.503621e-004 
-1.512856e-004 
-1.519736e-004 
-1.529413e-004 
-1.534711e-004 
1.000000e+000 
1.000000e+000 
2.791024e-004 
2.791288e-004 
2.788531e-004 
2.784979e-004 
2.782289e-004 
2.779038e-004 
2.775465e-004 
2.772593e-004 
2.770023e-004 
2.769415e-004 
2.770073e-004 
2.770002e-004 
2.770494e-004 
2.771672e-004 
2.771608e-004 
2.770998e-004 
2.769553e-004 
2.766894e-004 
2.763421e-004 
2.758720e-004 
2.752390e-004 
2.744532e-004 
2.735221e-004 
2.725523e-004 
2.715668e-004 
2.705400e-004 
2.695151e-004 
2.684685e-004 
2.673062e-004 
2.659814e-004 
2.645010e-004 
2.628689e-004 
2.610270e-004 
2.590771e-004 
2.572303e-004 
2.554883e-004 
2.538969e-004 
2.527960e-004 
2.523701e-004 
2.526070e-004 
2.536474e-004 
2.555784e-004 
2.581193e-004 
2.608321e-004 
2.632935e-004 
2.649138e-004 
2.649246e-004 
2.627297e-004 
2.580047e-004 
2.504828e-004 
2.400832e-004 
2.271672e-004 
2.122729e-004 
1.958750e-004 
1.786182e-004 
1.612900e-004 
1.444043e-004 
1.282485e-004 
1.131757e-004 
9.936991e-005 
8.661408e-005 
7.464116e-005 
6.328375e-005 
5.213390e-005 
4.061290e-005 
2.838862e-005 
1.524738e-005 
8.285976e-007 
-1.504530e-005 
-3.214468e-005 
-5.018476e-005 
-6.887540e-005 
-8.756241e-005 
-1.053816e-004 
-1.216700e-004 
-1.358021e-004 
-1.470504e-004 
-1.550103e-004 
-1.597332e-004 
-1.613629e-004 
-1.602062e-004 
-1.569958e-004 
-1.525728e-004 
-1.475567e-004 
-1.425463e-004 
-1.381717e-004 
-1.347526e-004 
-1.322429e-004 
-1.306367e-004 
-1.299835e-004 
-1.300165e-004 
-1.303982e-004 
-1.311464e-004 
-1.321925e-004 
-1.332312e-004 
-1.342045e-004 
-1.351856e-004 
-1.360643e-004 
-1.368222e-004 
-1.375778e-004 
-1.383865e-004 
-1.392097e-004 
-1.400567e-004 
-1.409807e-004 
-1.418765e-004 
-1.426010e-004 
-1.432096e-004 
-1.436701e-004 
-1.439541e-004 
-1.441711e-004 
-1.443294e-004 
-1.444020e-004 
-1.444519e-004 
-1.444833e-004 
-1.446798e-004 
-1.450094e-004 
-1.453606e-004 
-1.459788e-004 
-1.469267e-004 
-1.479067e-004 
-1.489912e-004 
-1.500838e-004 
-1.509954e-004 
-1.519327e-004 
-1.527362e-004 
-1.528947e-004 
1.000000e+000 
1.000000e+000 
2.790562e-004 
2.790155e-004 
2.790267e-004 
2.787117e-004 
2.782799e-004 
2.779547e-004 
2.776343e-004 
2.773195e-004 
2.770628e-004 
2.769176e-004 
2.769530e-004 
2.770393e-004 
2.770428e-004 
2.770989e-004 
2.771748e-004 
2.771196e-004 
2.770226e-004 
2.768954e-004 
2.765523e-004 
2.760504e-004 
2.754322e-004 
2.745532e-004 
2.734405e-004 
2.723160e-004 
2.712426e-004 
2.701367e-004 
2.690350e-004 
2.679906e-004 
2.668352e-004 
2.654224e-004 
2.638359e-004 
2.621533e-004 
2.603484e-004 
2.585420e-004 
2.570043e-004 
2.558314e-004 
2.549270e-004 
2.544121e-004 
2.545191e-004 
2.551382e-004 
2.561218e-004 
2.576262e-004 
2.595441e-004 
2.613871e-004 
2.628526e-004 
2.636066e-004 
2.629267e-004 
2.602496e-004 
2.553759e-004 
2.480092e-004 
2.379375e-004 
2.254918e-004 
2.111888e-004 
1.953720e-004 
1.785820e-004 
1.616281e-004 
1.450296e-004 
1.290014e-004 
1.139006e-004 
9.999566e-005 
8.707162e-005 
7.482990e-005 
6.316609e-005 
5.172774e-005 
3.990921e-005 
2.739535e-005 
1.404728e-005 
-4.807742e-007 
-1.637362e-005 
-3.334754e-005 
-5.107540e-005 
-6.929565e-005 
-8.738410e-005 
-1.044792e-004 
-1.199711e-004 
-1.333676e-004 
-1.440441e-004 
-1.516350e-004 
-1.562832e-004 
-1.582280e-004 
-1.577238e-004 
-1.554151e-004 
-1.520641e-004 
-1.481024e-004 
-1.439905e-004 
-1.402995e-004 
-1.371640e-004 
-1.345171e-004 
-1.325831e-004 
-1.314346e-004 
-1.308193e-004 
-1.306799e-004 
-1.311054e-004 
-1.319283e-004 
-1.328937e-004 
-1.339005e-004 
-1.349011e-004 
-1.357804e-004 
-1.364934e-004 
-1.371708e-004 
-1.379390e-004 
-1.387814e-004 
-1.396936e-004 
-1.407084e-004 
-1.417410e-004 
-1.425927e-004 
-1.431935e-004 
-1.436565e-004 
-1.439877e-004 
-1.441266e-004 
-1.442305e-004 
-1.443391e-004 
-1.443996e-004 
-1.445318e-004 
-1.447739e-004 
-1.450442e-004 
-1.454822e-004 
-1.461492e-004 
-1.470025e-004 
-1.480255e-004 
-1.490049e-004 
-1.498730e-004 
-1.509512e-004 
-1.518579e-004 
-1.520267e-004 
-1.522192e-004 
1.000000e+000 
1.000000e+000 
2.793593e-004 
2.792673e-004 
2.790579e-004 
2.788124e-004 
2.784875e-004 
2.780877e-004 
2.776513e-004 
2.773154e-004 
2.771729e-004 
2.770162e-004 
2.768929e-004 
2.769999e-004 
2.771416e-004 
2.771883e-004 
2.772390e-004 
2.772393e-004 
2.771716e-004 
2.770469e-004 
2.767714e-004 
2.762760e-004 
2.755155e-004 
2.745444e-004 
2.734389e-004 
2.721728e-004 
2.708663e-004 
2.696963e-004 
2.685982e-004 
2.674370e-004 
2.661969e-004 
2.648390e-004 
2.632422e-004 
2.614512e-004 
2.597627e-004 
2.583042e-004 
2.570301e-004 
2.561885e-004 
2.559932e-004 
2.561945e-004 
2.566375e-004 
2.574859e-004 
2.586543e-004 
2.598508e-004 
2.610305e-004 
2.621507e-004 
2.628019e-004 
2.625296e-004 
2.610812e-004 
2.580457e-004 
2.528637e-004 
2.453657e-004 
2.356708e-004 
2.237553e-004 
2.098012e-004 
1.944798e-004 
1.783753e-004 
1.617991e-004 
1.453078e-004 
1.295357e-004 
1.146110e-004 
1.004736e-004 
8.729869e-005 
7.500792e-005 
6.307184e-005 
5.114701e-005 
3.911141e-005 
2.651068e-005 
1.284795e-005 
-1.871174e-006 
-1.754708e-005 
-3.429186e-005 
-5.185309e-005 
-6.952575e-005 
-8.679452e-005 
-1.032510e-004 
-1.181192e-004 
-1.306900e-004 
-1.407807e-004 
-1.482737e-004 
-1.529733e-004 
-1.551540e-004 
-1.554200e-004 
-1.541432e-004 
-1.516929e-004 
-1.487025e-004 
-1.455941e-004 
-1.424181e-004 
-1.393634e-004 
-1.367789e-004 
-1.346626e-004 
-1.328689e-004 
-1.316609e-004 
-1.312554e-004 
-1.313568e-004 
-1.317860e-004 
-1.326425e-004 
-1.336903e-004 
-1.345868e-004 
-1.353638e-004 
-1.361100e-004 
-1.367805e-004 
-1.374544e-004 
-1.383332e-004 
-1.394160e-004 
-1.404914e-004 
-1.414984e-004 
-1.424511e-004 
-1.431777e-004 
-1.436368e-004 
-1.439394e-004 
-1.441071e-004 
-1.442202e-004 
-1.443451e-004 
-1.444833e-004 
-1.446542e-004 
-1.448006e-004 
-1.450781e-004 
-1.456819e-004 
-1.463634e-004 
-1.470339e-004 
-1.479626e-004 
-1.490203e-004 
-1.499411e-004 
-1.507102e-004 
-1.513415e-004 
-1.518415e-004 
-1.521612e-004 
1.000000e+000 
1.000000e+000 
2.795323e-004 
2.795028e-004 
2.792345e-004 
2.789681e-004 
2.786400e-004 
2.782196e-004 
2.778289e-004 
2.774347e-004 
2.771622e-004 
2.770769e-004 
2.770392e-004 
2.770664e-004 
2.772021e-004 
2.773006e-004 
2.773613e-004 
2.774447e-004 
2.774156e-004 
2.772254e-004 
2.769578e-004 
2.764816e-004 
2.756427e-004 
2.745397e-004 
2.732919e-004 
2.719125e-004 
2.705160e-004 
2.692682e-004 
2.681385e-004 
2.669661e-004 
2.656856e-004 
2.642737e-004 
2.626651e-004 
2.608914e-004 
2.592062e-004 
2.579085e-004 
2.571040e-004 
2.568264e-004 
2.571789e-004 
2.580550e-004 
2.591193e-004 
2.602339e-004 
2.613607e-004 
2.622481e-004 
2.627557e-004 
2.629448e-004 
2.626142e-004 
2.614050e-004 
2.591397e-004 
2.555363e-004 
2.501244e-004 
2.426803e-004 
2.332293e-004 
2.217576e-004 
2.084003e-004 
1.936394e-004 
1.780002e-004 
1.618682e-004 
1.457136e-004 
1.300554e-004 
1.151307e-004 
1.009647e-004 
8.762195e-005 
7.502668e-005 
6.281706e-005 
5.064787e-005 
3.829038e-005 
2.539414e-005 
1.160112e-005 
-3.167433e-006 
-1.885045e-005 
-3.539243e-005 
-5.251163e-005 
-6.965646e-005 
-8.628896e-005 
-1.019172e-004 
-1.159433e-004 
-1.278348e-004 
-1.373713e-004 
-1.445165e-004 
-1.492791e-004 
-1.519117e-004 
-1.528984e-004 
-1.526089e-004 
-1.513350e-004 
-1.494774e-004 
-1.472689e-004 
-1.447284e-004 
-1.420279e-004 
-1.393733e-004 
-1.368041e-004 
-1.345138e-004 
-1.328262e-004 
-1.318175e-004 
-1.314486e-004 
-1.317335e-004 
-1.325066e-004 
-1.334467e-004 
-1.343418e-004 
-1.351184e-004 
-1.357769e-004 
-1.363876e-004 
-1.370588e-004 
-1.379081e-004 
-1.389750e-004 
-1.401546e-004 
-1.412883e-004 
-1.422936e-004 
-1.430898e-004 
-1.435896e-004 
-1.438823e-004 
-1.441260e-004 
-1.442973e-004 
-1.443989e-004 
-1.445394e-004 
-1.447292e-004 
-1.449726e-004 
-1.453366e-004 
-1.457958e-004 
-1.464081e-004 
-1.472364e-004 
-1.480939e-004 
-1.489379e-004 
-1.498496e-004 
-1.505173e-004 
-1.509996e-004 
-1.515592e-004 
-1.517603e-004 
1.000000e+000 
1.000000e+000 
2.797315e-004 
2.797192e-004 
2.795707e-004 
2.792551e-004 
2.788027e-004 
2.783211e-004 
2.779731e-004 
2.776328e-004 
2.772612e-004 
2.771250e-004 
2.771979e-004 
2.772447e-004 
2.773410e-004 
2.775096e-004 
2.776028e-004 
2.776386e-004 
2.776345e-004 
2.774990e-004 
2.771466e-004 
2.765445e-004 
2.757031e-004 
2.745400e-004 
2.730788e-004 
2.715999e-004 
2.702272e-004 
2.688870e-004 
2.676484e-004 
2.665434e-004 
2.653281e-004 
2.638056e-004 
2.621333e-004 
2.605025e-004 
2.589248e-004 
2.576830e-004 
2.572625e-004 
2.576290e-004 
2.584764e-004 
2.598284e-004 
2.615345e-004 
2.630107e-004 
2.639855e-004 
2.645679e-004 
2.646090e-004 
2.638726e-004 
2.624805e-004 
2.604677e-004 
2.574275e-004 
2.530721e-004 
2.473919e-004 
2.400748e-004 
2.307291e-004 
2.195440e-004 
2.068600e-004 
1.926984e-004 
1.773857e-004 
1.616939e-004 
1.460230e-004 
1.304553e-004 
1.154352e-004 
1.013437e-004 
8.792432e-005 
7.492129e-005 
6.242464e-005 
5.014869e-005 
3.745824e-005 
2.418045e-005 
1.036121e-005 
-4.344076e-006 
-2.009411e-005 
-3.641881e-005 
-5.293812e-005 
-6.953011e-005 
-8.561053e-005 
-1.003573e-004 
-1.134729e-004 
-1.248099e-004 
-1.339150e-004 
-1.406851e-004 
-1.455698e-004 
-1.488211e-004 
-1.505247e-004 
-1.511486e-004 
-1.511179e-004 
-1.503693e-004 
-1.488998e-004 
-1.470001e-004 
-1.447017e-004 
-1.418698e-004 
-1.388685e-004 
-1.362483e-004 
-1.340799e-004 
-1.324325e-004 
-1.317194e-004 
-1.319118e-004 
-1.324916e-004 
-1.332672e-004 
-1.342051e-004 
-1.349937e-004 
-1.355049e-004 
-1.360128e-004 
-1.367093e-004 
-1.375431e-004 
-1.385352e-004 
-1.397724e-004 
-1.410484e-004 
-1.420759e-004 
-1.428812e-004 
-1.435063e-004 
-1.438927e-004 
-1.441346e-004 
-1.443341e-004 
-1.445265e-004 
-1.447154e-004 
-1.448996e-004 
-1.451917e-004 
-1.455714e-004 
-1.459497e-004 
-1.465447e-004 
-1.473976e-004 
-1.481716e-004 
-1.488590e-004 
-1.496591e-004 
-1.503982e-004 
-1.508977e-004 
-1.511571e-004 
-1.512402e-004 
1.000000e+000 
1.000000e+000 
2.801189e-004 
2.800339e-004 
2.798275e-004 
2.794683e-004 
2.790883e-004 
2.786174e-004 
2.780916e-004 
2.777423e-004 
2.775178e-004 
2.773366e-004 
2.773273e-004 
2.774473e-004 
2.775879e-004 
2.777675e-004 
2.779026e-004 
2.779073e-004 
2.778549e-004 
2.777220e-004 
2.773260e-004 
2.766110e-004 
2.756363e-004 
2.743832e-004 
2.728806e-004 
2.713140e-004 
2.698512e-004 
2.685383e-004 
2.673525e-004 
2.662164e-004 
2.649954e-004 
2.635445e-004 
2.618454e-004 
2.601289e-004 
2.587060e-004 
2.577793e-004 
2.575934e-004 
2.583701e-004 
2.599462e-004 
2.619182e-004 
2.639727e-004 
2.657386e-004 
2.667905e-004 
2.669761e-004 
2.663140e-004 
2.647724e-004 
2.624174e-004 
2.593642e-004 
2.555158e-004 
2.506569e-004 
2.446192e-004 
2.371982e-004 
2.281691e-004 
2.174568e-004 
2.051769e-004 
1.915532e-004 
1.768881e-004 
1.615873e-004 
1.460999e-004 
1.307880e-004 
1.159009e-004 
1.016159e-004 
8.798326e-005 
7.488282e-005 
6.210296e-005 
4.940332e-005 
3.650366e-005 
2.312098e-005 
9.059933e-006 
-5.745669e-006 
-2.124655e-005 
-3.726974e-005 
-5.348263e-005 
-6.943047e-005 
-8.464017e-005 
-9.865388e-005 
-1.110512e-004 
-1.215642e-004 
-1.301220e-004 
-1.367943e-004 
-1.417948e-004 
-1.454385e-004 
-1.480150e-004 
-1.497569e-004 
-1.508031e-004 
-1.511412e-004 
-1.507029e-004 
-1.494290e-004 
-1.472908e-004 
-1.444574e-004 
-1.412738e-004 
-1.380628e-004 
-1.352319e-004 
-1.332512e-004 
-1.322497e-004 
-1.320450e-004 
-1.324920e-004 
-1.333470e-004 
-1.342050e-004 
-1.348723e-004 
-1.353977e-004 
-1.358474e-004 
-1.363660e-004 
-1.371430e-004 
-1.381898e-004 
-1.393895e-004 
-1.406337e-004 
-1.417738e-004 
-1.426822e-004 
-1.433628e-004 
-1.438450e-004 
-1.441574e-004 
-1.444138e-004 
-1.446945e-004 
-1.449505e-004 
-1.451662e-004 
-1.454135e-004 
-1.457575e-004 
-1.462590e-004 
-1.468442e-004 
-1.474252e-004 
-1.481559e-004 
-1.489815e-004 
-1.495951e-004 
-1.501053e-004 
-1.506133e-004 
-1.508648e-004 
-1.509567e-004 
1.000000e+000 
1.000000e+000 
2.805302e-004 
2.804750e-004 
2.802103e-004 
2.797583e-004 
2.793195e-004 
2.789052e-004 
2.783700e-004 
2.779217e-004 
2.777270e-004 
2.776076e-004 
2.775744e-004 
2.777370e-004 
2.779246e-004 
2.780426e-004 
2.781712e-004 
2.782447e-004 
2.781366e-004 
2.778364e-004 
2.773802e-004 
2.766607e-004 
2.755284e-004 
2.741182e-004 
2.726289e-004 
2.710457e-004 
2.694970e-004 
2.682418e-004 
2.671919e-004 
2.660558e-004 
2.647883e-004 
2.634309e-004 
2.618256e-004 
2.600371e-004 
2.586358e-004 
2.580222e-004 
2.581737e-004 
2.592576e-004 
2.613897e-004 
2.639891e-004 
2.663783e-004 
2.683300e-004 
2.694875e-004 
2.693392e-004 
2.679351e-004 
2.656409e-004 
2.624517e-004 
2.583420e-004 
2.536309e-004 
2.483229e-004 
2.419390e-004 
2.343182e-004 
2.255553e-004 
2.153326e-004 
2.034250e-004 
1.902746e-004 
1.762591e-004 
1.613821e-004 
1.460582e-004 
1.309813e-004 
1.162632e-004 
1.018065e-004 
8.793881e-005 
7.474712e-005 
6.172046e-005 
4.860601e-005 
3.549726e-005 
2.204181e-005 
7.781029e-006 
-7.097937e-006 
-2.232093e-005 
-3.799606e-005 
-5.385869e-005 
-6.914536e-005 
-8.347736e-005 
-9.675196e-005 
-1.084556e-004 
-1.181929e-004 
-1.262509e-004 
-1.328895e-004 
-1.380638e-004 
-1.421197e-004 
-1.455961e-004 
-1.484740e-004 
-1.505487e-004 
-1.519203e-004 
-1.524775e-004 
-1.517790e-004 
-1.498085e-004 
-1.469979e-004 
-1.435752e-004 
-1.398194e-004 
-1.365112e-004 
-1.342086e-004 
-1.328166e-004 
-1.323099e-004 
-1.327390e-004 
-1.336008e-004 
-1.343303e-004 
-1.349149e-004 
-1.354326e-004 
-1.357954e-004 
-1.361449e-004 
-1.368106e-004 
-1.378336e-004 
-1.389849e-004 
-1.401903e-004 
-1.414234e-004 
-1.424391e-004 
-1.431452e-004 
-1.437139e-004 
-1.442009e-004 
-1.445722e-004 
-1.448650e-004 
-1.451533e-004 
-1.454779e-004 
-1.457683e-004 
-1.460623e-004 
-1.465196e-004 
-1.470513e-004 
-1.475772e-004 
-1.482537e-004 
-1.489663e-004 
-1.494794e-004 
-1.499402e-004 
-1.503938e-004 
-1.506468e-004 
-1.506980e-004 
1.000000e+000 
1.000000e+000 
2.809731e-004 
2.808174e-004 
2.805829e-004 
2.802169e-004 
2.796376e-004 
2.791031e-004 
2.786987e-004 
2.782859e-004 
2.779782e-004 
2.778946e-004 
2.779309e-004 
2.780593e-004 
2.782614e-004 
2.784119e-004 
2.784833e-004 
2.784936e-004 
2.783589e-004 
2.779851e-004 
2.773762e-004 
2.765186e-004 
2.753457e-004 
2.738820e-004 
2.722824e-004 
2.707226e-004 
2.693110e-004 
2.680788e-004 
2.670295e-004 
2.660619e-004 
2.649107e-004 
2.634465e-004 
2.618405e-004 
2.602630e-004 
2.589174e-004 
2.583201e-004 
2.588814e-004 
2.605010e-004 
2.629406e-004 
2.659399e-004 
2.688752e-004 
2.710067e-004 
2.719442e-004 
2.715129e-004 
2.696039e-004 
2.663781e-004 
2.622021e-004 
2.573222e-004 
2.518273e-004 
2.457839e-004 
2.391446e-004 
2.316274e-004 
2.229334e-004 
2.129836e-004 
2.017524e-004 
1.891768e-004 
1.754552e-004 
1.610319e-004 
1.462029e-004 
1.311799e-004 
1.163512e-004 
1.019969e-004 
8.804619e-005 
7.441542e-005 
6.112320e-005 
4.794917e-005 
3.451660e-005 
2.070091e-005 
6.501143e-006 
-8.229652e-006 
-2.347532e-005 
-3.885074e-005 
-5.399378e-005 
-6.867044e-005 
-8.242897e-005 
-9.476482e-005 
-1.055430e-004 
-1.147917e-004 
-1.224709e-004 
-1.287782e-004 
-1.341654e-004 
-1.389221e-004 
-1.431508e-004 
-1.469585e-004 
-1.502871e-004 
-1.527787e-004 
-1.540578e-004 
-1.539692e-004 
-1.524551e-004 
-1.495533e-004 
-1.457105e-004 
-1.416956e-004 
-1.380656e-004 
-1.351609e-004 
-1.334040e-004 
-1.329076e-004 
-1.331932e-004 
-1.338170e-004 
-1.346132e-004 
-1.352737e-004 
-1.355787e-004 
-1.357720e-004 
-1.361195e-004 
-1.366437e-004 
-1.374327e-004 
-1.385554e-004 
-1.398122e-004 
-1.409863e-004 
-1.420331e-004 
-1.429214e-004 
-1.436149e-004 
-1.441749e-004 
-1.446669e-004 
-1.450844e-004 
-1.454413e-004 
-1.457873e-004 
-1.461230e-004 
-1.464487e-004 
-1.467979e-004 
-1.472615e-004 
-1.478577e-004 
-1.483911e-004 
-1.488395e-004 
-1.493999e-004 
-1.499160e-004 
-1.501550e-004 
-1.503254e-004 
-1.504645e-004 
1.000000e+000 
1.000000e+000 
2.815129e-004 
2.813071e-004 
2.809100e-004 
2.805682e-004 
2.800769e-004 
2.794618e-004 
2.789995e-004 
2.786492e-004 
2.783451e-004 
2.782614e-004 
2.783431e-004 
2.784287e-004 
2.785794e-004 
2.787764e-004 
2.788352e-004 
2.786957e-004 
2.784508e-004 
2.780633e-004 
2.773433e-004 
2.762833e-004 
2.750524e-004 
2.736171e-004 
2.719702e-004 
2.704254e-004 
2.691689e-004 
2.680631e-004 
2.670602e-004 
2.661912e-004 
2.651943e-004 
2.637641e-004 
2.620962e-004 
2.606062e-004 
2.594523e-004 
2.589557e-004 
2.597106e-004 
2.617652e-004 
2.646195e-004 
2.679269e-004 
2.712048e-004 
2.735246e-004 
2.742906e-004 
2.735046e-004 
2.711042e-004 
2.670620e-004 
2.619180e-004 
2.562464e-004 
2.500572e-004 
2.433524e-004 
2.363773e-004 
2.289058e-004 
2.203688e-004 
2.106949e-004 
1.999923e-004 
1.879850e-004 
1.746744e-004 
1.606368e-004 
1.461822e-004 
1.313120e-004 
1.164517e-004 
1.020676e-004 
8.800427e-005 
7.408497e-005 
6.051554e-005 
4.715530e-005 
3.348768e-005 
1.945050e-005 
5.225397e-006 
-9.401604e-006 
-2.449346e-005 
-3.951590e-005 
-5.406919e-005 
-6.808691e-005 
-8.113274e-005 
-9.263122e-005 
-1.026142e-004 
-1.112989e-004 
-1.185976e-004 
-1.247362e-004 
-1.303678e-004 
-1.357458e-004 
-1.407644e-004 
-1.455401e-004 
-1.500076e-004 
-1.535357e-004 
-1.555913e-004 
-1.560820e-004 
-1.548821e-004 
-1.519500e-004 
-1.478935e-004 
-1.435770e-004 
-1.395131e-004 
-1.362169e-004 
-1.342699e-004 
-1.336075e-004 
-1.337029e-004 
-1.342967e-004 
-1.351321e-004 
-1.357115e-004 
-1.358931e-004 
-1.359841e-004 
-1.361874e-004 
-1.365352e-004 
-1.371622e-004 
-1.381757e-004 
-1.393795e-004 
-1.405238e-004 
-1.416181e-004 
-1.426469e-004 
-1.434630e-004 
-1.441097e-004 
-1.447239e-004 
-1.452995e-004 
-1.457596e-004 
-1.461056e-004 
-1.464516e-004 
-1.468447e-004 
-1.471888e-004 
-1.475521e-004 
-1.480309e-004 
-1.484851e-004 
-1.489142e-004 
-1.493907e-004 
-1.497256e-004 
-1.499065e-004 
-1.501579e-004 
-1.502737e-004 
1.000000e+000 
1.000000e+000 
2.818545e-004 
2.817543e-004 
2.814138e-004 
2.809117e-004 
2.804387e-004 
2.799304e-004 
2.793963e-004 
2.790271e-004 
2.788042e-004 
2.786858e-004 
2.787248e-004 
2.788560e-004 
2.789695e-004 
2.790418e-004 
2.790552e-004 
2.789101e-004 
2.785363e-004 
2.779537e-004 
2.771630e-004 
2.760823e-004 
2.747173e-004 
2.732207e-004 
2.717277e-004 
2.702906e-004 
2.690398e-004 
2.681268e-004 
2.673906e-004 
2.665190e-004 
2.654823e-004 
2.642797e-004 
2.627351e-004 
2.610982e-004 
2.600535e-004 
2.599408e-004 
2.608482e-004 
2.630393e-004 
2.663905e-004 
2.700990e-004 
2.733995e-004 
2.757859e-004 
2.766074e-004 
2.753635e-004 
2.722064e-004 
2.675581e-004 
2.616825e-004 
2.549864e-004 
2.480501e-004 
2.410445e-004 
2.337273e-004 
2.260078e-004 
2.178085e-004 
2.086592e-004 
1.982052e-004 
1.866297e-004 
1.740560e-004 
1.603847e-004 
1.459611e-004 
1.313786e-004 
1.167471e-004 
1.020668e-004 
8.771897e-005 
7.383103e-005 
6.001569e-005 
4.613986e-005 
3.235354e-005 
1.839705e-005 
3.940602e-006 
-1.075659e-005 
-2.537466e-005 
-3.995892e-005 
-5.423530e-005 
-6.752230e-005 
-7.956500e-005 
-9.042393e-005 
-9.983817e-005 
-1.077078e-004 
-1.145574e-004 
-1.208446e-004 
-1.266798e-004 
-1.323907e-004 
-1.383316e-004 
-1.442445e-004 
-1.495806e-004 
-1.540046e-004 
-1.570713e-004 
-1.581360e-004 
-1.570370e-004 
-1.542302e-004 
-1.501879e-004 
-1.454323e-004 
-1.409321e-004 
-1.375406e-004 
-1.353613e-004 
-1.342929e-004 
-1.343662e-004 
-1.351113e-004 
-1.357599e-004 
-1.361529e-004 
-1.364325e-004 
-1.364588e-004 
-1.363300e-004 
-1.365032e-004 
-1.370807e-004 
-1.378680e-004 
-1.388783e-004 
-1.400932e-004 
-1.412586e-004 
-1.422582e-004 
-1.431973e-004 
-1.440773e-004 
-1.448009e-004 
-1.454139e-004 
-1.459870e-004 
-1.464714e-004 
-1.468476e-004 
-1.471994e-004 
-1.475629e-004 
-1.479068e-004 
-1.482353e-004 
-1.486287e-004 
-1.490403e-004 
-1.493075e-004 
-1.495415e-004 
-1.498342e-004 
-1.499580e-004 
-1.498940e-004 
1.000000e+000 
1.000000e+000 
2.822235e-004 
2.821115e-004 
2.818968e-004 
2.813632e-004 
2.808193e-004 
2.803732e-004 
2.798714e-004 
2.794774e-004 
2.792931e-004 
2.791682e-004 
2.791184e-004 
2.792231e-004 
2.793363e-004 
2.793006e-004 
2.791711e-004 
2.789736e-004 
2.785466e-004 
2.777985e-004 
2.768724e-004 
2.757840e-004 
2.744000e-004 
2.728735e-004 
2.714832e-004 
2.702396e-004 
2.691356e-004 
2.683304e-004 
2.677676e-004 
2.670806e-004 
2.660735e-004 
2.648589e-004 
2.634564e-004 
2.619442e-004 
2.609070e-004 
2.609506e-004 
2.621741e-004 
2.645887e-004 
2.681397e-004 
2.721387e-004 
2.756113e-004 
2.779421e-004 
2.785940e-004 
2.770100e-004 
2.732346e-004 
2.678391e-004 
2.612295e-004 
2.537633e-004 
2.460973e-004 
2.386173e-004 
2.310906e-004 
2.233149e-004 
2.152572e-004 
2.064963e-004 
1.965349e-004 
1.854152e-004 
1.732819e-004 
1.600371e-004 
1.459013e-004 
1.314245e-004 
1.168150e-004 
1.020905e-004 
8.756208e-005 
7.340928e-005 
5.936190e-005 
4.527585e-005 
3.126229e-005 
1.715492e-005 
2.709827e-006 
-1.186656e-005 
-2.627356e-005 
-4.045733e-005 
-5.413932e-005 
-6.675919e-005 
-7.808729e-005 
-8.815991e-005 
-9.683778e-005 
-1.041705e-004 
-1.107034e-004 
-1.169075e-004 
-1.229745e-004 
-1.292450e-004 
-1.359693e-004 
-1.427961e-004 
-1.491226e-004 
-1.544875e-004 
-1.583004e-004 
-1.599038e-004 