# vtk DataFile Version 2.0
2D-ADE data file 
ASCII
DATASET RECTILINEAR_GRID
DIMENSIONS 128 128 1
X_COORDINATES 128 int
0 1 2 3 4 5 6 7 8 9 10 11 12 13 14 15 16 17 18 19 20 21 22 23 24 25 26 27 28 29 30 31 32 33 34 35 36 37 38 39 40 41 42 43 44 45 46 47 48 49 50 51 52 53 54 55 56 57 58 59 60 61 62 63 64 65 66 67 68 69 70 71 72 73 74 75 76 77 78 79 80 81 82 83 84 85 86 87 88 89 90 91 92 93 94 95 96 97 98 99 100 101 102 103 104 105 106 107 108 109 110 111 112 113 114 115 116 117 118 119 120 121 122 123 124 125 126 127 
Y_COORDINATES 128 int
0 1 2 3 4 5 6 7 8 9 10 11 12 13 14 15 16 17 18 19 20 21 22 23 24 25 26 27 28 29 30 31 32 33 34 35 36 37 38 39 40 41 42 43 44 45 46 47 48 49 50 51 52 53 54 55 56 57 58 59 60 61 62 63 64 65 66 67 68 69 70 71 72 73 74 75 76 77 78 79 80 81 82 83 84 85 86 87 88 89 90 91 92 93 94 95 96 97 98 99 100 101 102 103 104 105 106 107 108 109 110 111 112 113 114 115 116 117 118 119 120 121 122 123 124 125 126 127 
Z_COORDINATES 1 int
0
POINT_DATA 16384 
SCALARS density double 1
LOOKUP_TABLE default
1.000000e+000 
1.000000e+000 
1.000000e+000 
1.000000e+000 
1.000000e+000 
1.000000e+000 
1.000000e+000 
1.000000e+000 
1.000000e+000 
1.000000e+000 
1.000000e+000 
1.000000e+000 
1.000000e+000 
1.000000e+000 
1.000000e+000 
1.000000e+000 
1.000000e+000 
1.000000e+000 
1.000000e+000 
1.000000e+000 
1.000000e+000 
1.000000e+000 
1.000000e+000 
1.000000e+000 
1.000000e+000 
1.000000e+000 
1.000000e+000 
1.000000e+000 
1.000000e+000 
1.000000e+000 
1.000000e+000 
1.000000e+000 
1.000000e+000 
1.000000e+000 
1.000000e+000 
1.000000e+000 
1.000000e+000 
1.000000e+000 
1.000000e+000 
1.000000e+000 
1.000000e+000 
1.000000e+000 
1.000000e+000 
1.000000e+000 
1.000000e+000 
1.000000e+000 
1.000000e+000 
1.000000e+000 
1.000000e+000 
1.000000e+000 
1.000000e+000 
1.000000e+000 
1.000000e+000 
1.000000e+000 
1.000000e+000 
1.000000e+000 
1.000000e+000 
1.000000e+000 
1.000000e+000 
1.000000e+000 
1.000000e+000 
1.000000e+000 
1.000000e+000 
1.000000e+000 
1.000000e+000 
1.000000e+000 
1.000000e+000 
1.000000e+000 
1.000000e+000 
1.000000e+000 
1.000000e+000 
1.000000e+000 
1.000000e+000 
1.000000e+000 
1.000000e+000 
1.000000e+000 
1.000000e+000 
1.000000e+000 
1.000000e+000 
1.000000e+000 
1.000000e+000 
1.000000e+000 
1.000000e+000 
1.000000e+000 
1.000000e+000 
1.000000e+000 
1.000000e+000 
1.000000e+000 
1.000000e+000 
1.000000e+000 
1.000000e+000 
1.000000e+000 
1.000000e+000 
1.000000e+000 
1.000000e+000 
1.000000e+000 
1.000000e+000 
1.000000e+000 
1.000000e+000 
1.000000e+000 
1.000000e+000 
1.000000e+000 
1.000000e+000 
1.000000e+000 
1.000000e+000 
1.000000e+000 
1.000000e+000 
1.000000e+000 
1.000000e+000 
1.000000e+000 
1.000000e+000 
1.000000e+000 
1.000000e+000 
1.000000e+000 
1.000000e+000 
1.000000e+000 
1.000000e+000 
1.000000e+000 
1.000000e+000 
1.000000e+000 
1.000000e+000 
1.000000e+000 
1.000000e+000 
1.000000e+000 
1.000000e+000 
1.000000e+000 
1.000000e+000 
1.000000e+000 
1.000000e+000 
1.190676e-004 
1.189767e-004 
1.188520e-004 
1.187841e-004 
1.187482e-004 
1.188996e-004 
1.191354e-004 
1.194815e-004 
1.198878e-004 
1.204532e-004 
1.210717e-004 
1.217472e-004 
1.224984e-004 
1.233542e-004 
1.242209e-004 
1.251261e-004 
1.261252e-004 
1.271756e-004 
1.282219e-004 
1.293329e-004 
1.305454e-004 
1.317664e-004 
1.330081e-004 
1.343564e-004 
1.357872e-004 
1.372036e-004 
1.386940e-004 
1.403105e-004 
1.419618e-004 
1.436054e-004 
1.453765e-004 
1.472424e-004 
1.490865e-004 
1.509584e-004 
1.529737e-004 
1.549995e-004 
1.569661e-004 
1.590026e-004 
1.611285e-004 
1.631534e-004 
1.651171e-004 
1.671571e-004 
1.691562e-004 
1.709593e-004 
1.727228e-004 
1.744913e-004 
1.760473e-004 
1.773687e-004 
1.786542e-004 
1.797883e-004 
1.805683e-004 
1.811381e-004 
1.816134e-004 
1.817474e-004 
1.814875e-004 
1.810685e-004 
1.804279e-004 
1.793239e-004 
1.779108e-004 
1.763629e-004 
1.744626e-004 
1.721358e-004 
1.696622e-004 
1.670350e-004 
1.640315e-004 
1.608094e-004 
1.575967e-004 
1.542238e-004 
1.506330e-004 
1.471125e-004 
1.437055e-004 
1.402294e-004 
1.368375e-004 
1.337577e-004 
1.308666e-004 
1.281182e-004 
1.257570e-004 
1.238276e-004 
1.221759e-004 
1.209099e-004 
1.201910e-004 
1.199093e-004 
1.199955e-004 
1.206022e-004 
1.217239e-004 
1.232155e-004 
1.250993e-004 
1.274545e-004 
1.301536e-004 
1.331095e-004 
1.363683e-004 
1.399041e-004 
1.435653e-004 
1.473431e-004 
1.512458e-004 
1.551908e-004 
1.590726e-004 
1.629334e-004 
1.667273e-004 
1.703849e-004 
1.738613e-004 
1.772155e-004 
1.803648e-004 
1.832993e-004 
1.860072e-004 
1.885466e-004 
1.908219e-004 
1.928939e-004 
1.947409e-004 
1.964250e-004 
1.978481e-004 
1.991279e-004 
2.001985e-004 
2.011440e-004 
2.018540e-004 
2.024858e-004 
2.029133e-004 
2.032592e-004 
2.033838e-004 
2.034775e-004 
2.033699e-004 
2.032234e-004 
2.028909e-004 
2.025975e-004 
2.023301e-004 
2.022073e-004 
1.000000e+000 
1.000000e+000 
1.191475e-004 
1.190538e-004 
1.189513e-004 
1.189791e-004 
1.189574e-004 
1.191198e-004 
1.193237e-004 
1.196991e-004 
1.200687e-004 
1.206004e-004 
1.211850e-004 
1.218539e-004 
1.225474e-004 
1.233603e-004 
1.242064e-004 
1.250829e-004 
1.260223e-004 
1.270402e-004 
1.280732e-004 
1.291371e-004 
1.302974e-004 
1.314975e-004 
1.327183e-004 
1.340038e-004 
1.353925e-004 
1.367906e-004 
1.382406e-004 
1.397835e-004 
1.414033e-004 
1.430211e-004 
1.447278e-004 
1.465197e-004 
1.483438e-004 
1.501747e-004 
1.521063e-004 
1.540736e-004 
1.560321e-004 
1.580067e-004 
1.600453e-004 
1.620468e-004 
1.640086e-004 
1.659657e-004 
1.679039e-004 
1.697327e-004 
1.714852e-004 
1.731660e-004 
1.747265e-004 
1.761152e-004 
1.773658e-004 
1.784489e-004 
1.793248e-004 
1.799692e-004 
1.803932e-004 
1.805695e-004 
1.804814e-004 
1.801019e-004 
1.794418e-004 
1.785073e-004 
1.772776e-004 
1.757256e-004 
1.739083e-004 
1.718466e-004 
1.694916e-004 
1.668681e-004 
1.640863e-004 
1.611250e-004 
1.579414e-004 
1.546610e-004 
1.513776e-004 
1.480074e-004 
1.445961e-004 
1.413333e-004 
1.382054e-004 
1.351350e-004 
1.322934e-004 
1.298076e-004 
1.275507e-004 
1.255565e-004 
1.240343e-004 
1.229450e-004 
1.221551e-004 
1.218272e-004 
1.220521e-004 
1.226564e-004 
1.236157e-004 
1.251111e-004 
1.270363e-004 
1.292272e-004 
1.317734e-004 
1.347393e-004 
1.378932e-004 
1.412026e-004 
1.447657e-004 
1.484993e-004 
1.521924e-004 
1.559506e-004 
1.597735e-004 
1.635187e-004 
1.670890e-004 
1.706477e-004 
1.740667e-004 
1.772698e-004 
1.802581e-004 
1.831720e-004 
1.858014e-004 
1.882126e-004 
1.904152e-004 
1.925068e-004 
1.942581e-004 
1.958805e-004 
1.972965e-004 
1.986030e-004 
1.995802e-004 
2.005430e-004 
2.012708e-004 
2.019282e-004 
2.022873e-004 
2.027225e-004 
2.028688e-004 
2.030083e-004 
2.028870e-004 
2.028920e-004 
2.026088e-004 
2.024060e-004 
2.022117e-004 
2.021207e-004 
1.000000e+000 
1.000000e+000 
1.192610e-004 
1.191702e-004 
1.190586e-004 
1.190251e-004 
1.191038e-004 
1.192549e-004 
1.194496e-004 
1.197813e-004 
1.202062e-004 
1.206775e-004 
1.212144e-004 
1.218783e-004 
1.225794e-004 
1.232998e-004 
1.241111e-004 
1.250097e-004 
1.258982e-004 
1.268244e-004 
1.278635e-004 
1.289371e-004 
1.299934e-004 
1.311410e-004 
1.323960e-004 
1.336373e-004 
1.349033e-004 
1.363091e-004 
1.377762e-004 
1.392108e-004 
1.407409e-004 
1.424114e-004 
1.440730e-004 
1.457273e-004 
1.475338e-004 
1.494150e-004 
1.512283e-004 
1.530932e-004 
1.551047e-004 
1.570760e-004 
1.589640e-004 
1.609529e-004 
1.629939e-004 
1.648776e-004 
1.667076e-004 
1.686213e-004 
1.704220e-004 
1.719976e-004 
1.735556e-004 
1.750813e-004 
1.763226e-004 
1.773430e-004 
1.783312e-004 
1.790984e-004 
1.794847e-004 
1.797005e-004 
1.797875e-004 
1.794808e-004 
1.788182e-004 
1.780255e-004 
1.769615e-004 
1.754521e-004 
1.737117e-004 
1.718356e-004 
1.696000e-004 
1.670371e-004 
1.643956e-004 
1.615971e-004 
1.585033e-004 
1.553218e-004 
1.521826e-004 
1.489302e-004 
1.456092e-004 
1.424504e-004 
1.394258e-004 
1.364478e-004 
1.336889e-004 
1.312639e-004 
1.290739e-004 
1.271556e-004 
1.256663e-004 
1.245858e-004 
1.238488e-004 
1.235491e-004 
1.237349e-004 
1.243271e-004 
1.253156e-004 
1.267554e-004 
1.285988e-004 
1.307769e-004 
1.332908e-004 
1.361265e-004 
1.392044e-004 
1.424812e-004 
1.459346e-004 
1.495166e-004 
1.531597e-004 
1.568354e-004 
1.605051e-004 
1.641293e-004 
1.676616e-004 
1.710861e-004 
1.743695e-004 
1.774985e-004 
1.804415e-004 
1.832019e-004 
1.857604e-004 
1.881265e-004 
1.902761e-004 
1.922358e-004 
1.939926e-004 
1.955693e-004 
1.969441e-004 
1.981643e-004 
1.992066e-004 
2.001027e-004 
2.008299e-004 
2.014469e-004 
2.019081e-004 
2.022569e-004 
2.024717e-004 
2.026067e-004 
2.026064e-004 
2.025344e-004 
2.024046e-004 
2.022185e-004 
2.020030e-004 
2.018331e-004 
1.000000e+000 
1.000000e+000 
1.193312e-004 
1.191451e-004 
1.190840e-004 
1.190528e-004 
1.191222e-004 
1.192652e-004 
1.195032e-004 
1.197964e-004 
1.202090e-004 
1.206845e-004 
1.212181e-004 
1.218193e-004 
1.225080e-004 
1.232302e-004 
1.239950e-004 
1.248319e-004 
1.257201e-004 
1.266302e-004 
1.275925e-004 
1.286264e-004 
1.296893e-004 
1.307886e-004 
1.319583e-004 
1.331922e-004 
1.344521e-004 
1.357751e-004 
1.371761e-004 
1.386297e-004 
1.401194e-004 
1.416901e-004 
1.433289e-004 
1.450079e-004 
1.467313e-004 
1.485316e-004 
1.503753e-004 
1.522424e-004 
1.541450e-004 
1.560968e-004 
1.580544e-004 
1.600023e-004 
1.619532e-004 
1.639061e-004 
1.658069e-004 
1.676417e-004 
1.694301e-004 
1.711524e-004 
1.727377e-004 
1.741898e-004 
1.755380e-004 
1.767256e-004 
1.776791e-004 
1.784474e-004 
1.790471e-004 
1.793731e-004 
1.793982e-004 
1.792214e-004 
1.787998e-004 
1.780148e-004 
1.769417e-004 
1.756783e-004 
1.740983e-004 
1.721583e-004 
1.700359e-004 
1.677399e-004 
1.651161e-004 
1.622782e-004 
1.594101e-004 
1.563911e-004 
1.531650e-004 
1.499818e-004 
1.468962e-004 
1.437345e-004 
1.406309e-004 
1.378227e-004 
1.351853e-004 
1.326460e-004 
1.304740e-004 
1.287256e-004 
1.272004e-004 
1.260121e-004 
1.253790e-004 
1.251439e-004 
1.252010e-004 
1.257678e-004 
1.268562e-004 
1.282309e-004 
1.299542e-004 
1.321713e-004 
1.346998e-004 
1.373972e-004 
1.404165e-004 
1.437234e-004 
1.470929e-004 
1.505378e-004 
1.541679e-004 
1.578087e-004 
1.613413e-004 
1.648696e-004 
1.683902e-004 
1.717113e-004 
1.748651e-004 
1.779384e-004 
1.808427e-004 
1.834687e-004 
1.859461e-004 
1.882752e-004 
1.903629e-004 
1.922032e-004 
1.939368e-004 
1.954752e-004 
1.967913e-004 
1.979341e-004 
1.989999e-004 
1.998505e-004 
2.005517e-004 
2.011373e-004 
2.016553e-004 
2.019593e-004 
2.021984e-004 
2.023426e-004 
2.024218e-004 
2.023048e-004 
2.022079e-004 
2.020521e-004 
2.018429e-004 
2.015156e-004 
1.000000e+000 
1.000000e+000 
1.193696e-004 
1.191476e-004 
1.190143e-004 
1.190065e-004 
1.190591e-004 
1.192004e-004 
1.194659e-004 
1.197705e-004 
1.201323e-004 
1.206082e-004 
1.211656e-004 
1.217263e-004 
1.223600e-004 
1.230996e-004 
1.238532e-004 
1.246107e-004 
1.254719e-004 
1.264010e-004 
1.273019e-004 
1.282556e-004 
1.293299e-004 
1.304177e-004 
1.314886e-004 
1.326808e-004 
1.339693e-004 
1.352287e-004 
1.365336e-004 
1.379994e-004 
1.394965e-004 
1.409636e-004 
1.425554e-004 
1.442820e-004 
1.459662e-004 
1.476691e-004 
1.495393e-004 
1.514512e-004 
1.532798e-004 
1.551961e-004 
1.572395e-004 
1.592012e-004 
1.610915e-004 
1.630991e-004 
1.651040e-004 
1.669281e-004 
1.687216e-004 
1.705710e-004 
1.722422e-004 
1.736964e-004 
1.751345e-004 
1.764718e-004 
1.774878e-004 
1.783079e-004 
1.790526e-004 
1.795078e-004 
1.795955e-004 
1.795214e-004 
1.792462e-004 
1.785623e-004 
1.775709e-004 
1.764219e-004 
1.749568e-004 
1.731080e-004 
1.710698e-004 
1.688573e-004 
1.663251e-004 
1.635712e-004 
1.607487e-004 
1.577799e-004 
1.546419e-004 
1.515022e-004 
1.484073e-004 
1.452976e-004 
1.422640e-004 
1.394240e-004 
1.367620e-004 
1.342958e-004 
1.321278e-004 
1.302918e-004 
1.287846e-004 
1.276542e-004 
1.269374e-004 
1.266332e-004 
1.267560e-004 
1.273068e-004 
1.282713e-004 
1.296512e-004 
1.314263e-004 
1.335413e-004 
1.359845e-004 
1.387394e-004 
1.417301e-004 
1.449018e-004 
1.482584e-004 
1.517367e-004 
1.552511e-004 
1.587896e-004 
1.623460e-004 
1.658272e-004 
1.691967e-004 
1.724745e-004 
1.756278e-004 
1.785800e-004 
1.813609e-004 
1.839836e-004 
1.864028e-004 
1.885913e-004 
1.906169e-004 
1.924584e-004 
1.940888e-004 
1.955266e-004 
1.968368e-004 
1.979629e-004 
1.989210e-004 
1.997439e-004 
2.004685e-004 
2.010214e-004 
2.014688e-004 
2.018203e-004 
2.020829e-004 
2.021913e-004 
2.022519e-004 
2.022361e-004 
2.021316e-004 
2.019030e-004 
2.015755e-004 
2.012288e-004 
1.000000e+000 
1.000000e+000 
1.192118e-004 
1.189801e-004 
1.188616e-004 
1.188682e-004 
1.189361e-004 
1.190797e-004 
1.193060e-004 
1.196425e-004 
1.200299e-004 
1.204701e-004 
1.209935e-004 
1.215901e-004 
1.222090e-004 
1.228785e-004 
1.236233e-004 
1.244043e-004 
1.251991e-004 
1.260580e-004 
1.269813e-004 
1.279206e-004 
1.288927e-004 
1.299480e-004 
1.310547e-004 
1.321781e-004 
1.333684e-004 
1.346517e-004 
1.359716e-004 
1.373250e-004 
1.387771e-004 
1.403123e-004 
1.418689e-004 
1.434840e-004 
1.452109e-004 
1.469881e-004 
1.487734e-004 
1.506393e-004 
1.525972e-004 
1.545498e-004 
1.565012e-004 
1.585361e-004 
1.605970e-004 
1.625825e-004 
1.645603e-004 
1.665824e-004 
1.685170e-004 
1.703110e-004 
1.720839e-004 
1.738011e-004 
1.752941e-004 
1.766112e-004 
1.778661e-004 
1.789100e-004 
1.796247e-004 
1.801676e-004 
1.805598e-004 
1.805811e-004 
1.802599e-004 
1.797907e-004 
1.790439e-004 
1.778515e-004 
1.764156e-004 
1.748374e-004 
1.728813e-004 
1.705681e-004 
1.681758e-004 
1.656193e-004 
1.627123e-004 
1.596965e-004 
1.567455e-004 
1.536345e-004 
1.503876e-004 
1.473308e-004 
1.444135e-004 
1.414492e-004 
1.386875e-004 
1.363196e-004 
1.341277e-004 
1.321254e-004 
1.306150e-004 
1.295349e-004 
1.286915e-004 
1.282858e-004 
1.284541e-004 
1.289674e-004 
1.298002e-004 
1.311668e-004 
1.329650e-004 
1.349899e-004 
1.373612e-004 
1.401415e-004 
1.431025e-004 
1.461867e-004 
1.495248e-004 
1.530085e-004 
1.564525e-004 
1.599297e-004 
1.634765e-004 
1.669171e-004 
1.702001e-004 
1.734337e-004 
1.765506e-004 
1.794256e-004 
1.821223e-004 
1.847016e-004 
1.870525e-004 
1.891548e-004 
1.911082e-004 
1.929030e-004 
1.944523e-004 
1.958218e-004 
1.970764e-004 
1.981628e-004 
1.990517e-004 
1.998398e-004 
2.005291e-004 
2.010659e-004 
2.014701e-004 
2.018226e-004 
2.020715e-004 
2.021972e-004 
2.022351e-004 
2.022264e-004 
2.020753e-004 
2.018616e-004 
2.015795e-004 
2.011330e-004 
1.000000e+000 
1.000000e+000 
1.189747e-004 
1.188018e-004 
1.186555e-004 
1.186108e-004 
1.187041e-004 
1.188963e-004 
1.191081e-004 
1.194261e-004 
1.198443e-004 
1.202928e-004 
1.207746e-004 
1.213684e-004 
1.220069e-004 
1.226374e-004 
1.233353e-004 
1.241265e-004 
1.249068e-004 
1.256964e-004 
1.265940e-004 
1.275417e-004 
1.284593e-004 
1.294499e-004 
1.305610e-004 
1.316715e-004 
1.327876e-004 
1.340434e-004 
1.353853e-004 
1.366998e-004 
1.380960e-004 
1.396540e-004 
1.412317e-004 
1.428033e-004 
1.445290e-004 
1.463698e-004 
1.481717e-004 
1.500283e-004 
1.520536e-004 
1.540934e-004 
1.560756e-004 
1.581657e-004 
1.603503e-004 
1.624382e-004 
1.644864e-004 
1.666289e-004 
1.687184e-004 
1.706340e-004 
1.725231e-004 
1.743986e-004 
1.760599e-004 
1.775185e-004 
1.789117e-004 
1.801214e-004 
1.810105e-004 
1.816937e-004 
1.822099e-004 
1.823942e-004 
1.822388e-004 
1.818671e-004 
1.812160e-004 
1.801859e-004 
1.788669e-004 
1.773146e-004 
1.754468e-004 
1.732760e-004 
1.709004e-004 
1.683186e-004 
1.655157e-004 
1.625646e-004 
1.595186e-004 
1.563937e-004 
1.532422e-004 
1.501154e-004 
1.470552e-004 
1.441309e-004 
1.413817e-004 
1.388249e-004 
1.365443e-004 
1.346020e-004 
1.329695e-004 
1.316884e-004 
1.308591e-004 
1.304487e-004 
1.304060e-004 
1.308235e-004 
1.317204e-004 
1.329746e-004 
1.345921e-004 
1.366505e-004 
1.390386e-004 
1.416472e-004 
1.445457e-004 
1.477108e-004 
1.509708e-004 
1.543140e-004 
1.577989e-004 
1.613008e-004 
1.647056e-004 
1.680868e-004 
1.714279e-004 
1.745867e-004 
1.775643e-004 
1.804438e-004 
1.831380e-004 
1.855748e-004 
1.878376e-004 
1.899569e-004 
1.918289e-004 
1.934809e-004 
1.950026e-004 
1.963616e-004 
1.974929e-004 
1.984920e-004 
1.993939e-004 
2.001370e-004 
2.007169e-004 
2.012419e-004 
2.016719e-004 
2.019642e-004 
2.021575e-004 
2.023234e-004 
2.023661e-004 
2.023113e-004 
2.021769e-004 
2.019482e-004 
2.015241e-004 
2.010452e-004 
1.000000e+000 
1.000000e+000 
1.186092e-004 
1.183908e-004 
1.183232e-004 
1.183336e-004 
1.183994e-004 
1.185831e-004 
1.188534e-004 
1.191688e-004 
1.195497e-004 
1.200322e-004 
1.205474e-004 
1.210827e-004 
1.216951e-004 
1.223751e-004 
1.230475e-004 
1.237522e-004 
1.245451e-004 
1.253665e-004 
1.261753e-004 
1.270588e-004 
1.280300e-004 
1.290007e-004 
1.299949e-004 
1.311102e-004 
1.322913e-004 
1.334662e-004 
1.347278e-004 
1.361301e-004 
1.375601e-004 
1.390102e-004 
1.406088e-004 
1.423231e-004 
1.440283e-004 
1.458073e-004 
1.477603e-004 
1.497583e-004 
1.517315e-004 
1.538339e-004 
1.560674e-004 
1.582474e-004 
1.604150e-004 
1.627252e-004 
1.650426e-004 
1.672144e-004 
1.693991e-004 
1.716547e-004 
1.737392e-004 
1.756287e-004 
1.775325e-004 
1.793384e-004 
1.808079e-004 
1.820921e-004 
1.833253e-004 
1.842409e-004 
1.847494e-004 
1.851165e-004 
1.852885e-004 
1.849758e-004 
1.843226e-004 
1.835515e-004 
1.824167e-004 
1.807932e-004 
1.789972e-004 
1.770519e-004 
1.746663e-004 
1.719890e-004 
1.693123e-004 
1.664391e-004 
1.632474e-004 
1.600791e-004 
1.570121e-004 
1.537883e-004 
1.505595e-004 
1.476302e-004 
1.448424e-004 
1.420916e-004 
1.396915e-004 
1.377142e-004 
1.359326e-004 
1.344695e-004 
1.335620e-004 
1.330536e-004 
1.328392e-004 
1.331383e-004 
1.339611e-004 
1.350925e-004 
1.365898e-004 
1.385782e-004 
1.408895e-004 
1.434065e-004 
1.462423e-004 
1.493551e-004 
1.525546e-004 
1.558487e-004 
1.592926e-004 
1.627464e-004 
1.661120e-004 
1.694564e-004 
1.727480e-004 
1.758597e-004 
1.788005e-004 
1.816246e-004 
1.842554e-004 
1.866425e-004 
1.888515e-004 
1.908926e-004 
1.926993e-004 
1.942968e-004 
1.957468e-004 
1.970252e-004 
1.981054e-004 
1.990481e-004 
1.998789e-004 
2.005659e-004 
2.011184e-004 
2.015929e-004 
2.019764e-004 
2.022488e-004 
2.024348e-004 
2.025692e-004 
2.026001e-004 
2.025231e-004 
2.023650e-004 
2.021448e-004 
2.017870e-004 
2.012398e-004 
1.000000e+000 
1.000000e+000 
1.181809e-004 
1.179871e-004 
1.178894e-004 
1.179322e-004 
1.180299e-004 
1.182054e-004 
1.184979e-004 
1.188528e-004 
1.192252e-004 
1.196876e-004 
1.202309e-004 
1.207779e-004 
1.213506e-004 
1.220171e-004 
1.227097e-004 
1.233870e-004 
1.241305e-004 
1.249536e-004 
1.257627e-004 
1.265937e-004 
1.275330e-004 
1.285195e-004 
1.294944e-004 
1.305617e-004 
1.317482e-004 
1.329491e-004 
1.341887e-004 
1.355806e-004 
1.370612e-004 
1.385512e-004 
1.401538e-004 
1.419190e-004 
1.437233e-004 
1.455694e-004 
1.475791e-004 
1.497013e-004 
1.518239e-004 
1.540326e-004 
1.563895e-004 
1.587678e-004 
1.611286e-004 
1.635825e-004 
1.660904e-004 
1.685221e-004 
1.709185e-004 
1.733406e-004 
1.756753e-004 
1.778531e-004 
1.799446e-004 
1.819295e-004 
1.836933e-004 
1.852356e-004 
1.865973e-004 
1.877127e-004 
1.885212e-004 
1.890483e-004 
1.892935e-004 
1.892127e-004 
1.887929e-004 
1.880450e-004 
1.869770e-004 
1.855919e-004 
1.838766e-004 
1.818489e-004 
1.795726e-004 
1.770539e-004 
1.742667e-004 
1.712982e-004 
1.682404e-004 
1.650466e-004 
1.617396e-004 
1.584886e-004 
1.553175e-004 
1.521512e-004 
1.491313e-004 
1.464091e-004 
1.438865e-004 
1.415661e-004 
1.396675e-004 
1.381879e-004 
1.369848e-004 
1.362005e-004 
1.359731e-004 
1.361273e-004 
1.366199e-004 
1.376447e-004 
1.391324e-004 
1.408765e-004 
1.429794e-004 
1.455204e-004 
1.482716e-004 
1.511546e-004 
1.543150e-004 
1.576476e-004 
1.609401e-004 
1.642686e-004 
1.676907e-004 
1.710018e-004 
1.741372e-004 
1.772309e-004 
1.802137e-004 
1.829246e-004 
1.854469e-004 
1.878619e-004 
1.900352e-004 
1.919313e-004 
1.936908e-004 
1.952981e-004 
1.966426e-004 
1.978026e-004 
1.988793e-004 
1.997873e-004 
2.004946e-004 
2.011245e-004 
2.016909e-004 
2.020981e-004 
2.023945e-004 
2.026744e-004 
2.028676e-004 
2.029235e-004 
2.029310e-004 
2.029098e-004 
2.027438e-004 
2.024293e-004 
2.020139e-004 
2.015341e-004 
1.000000e+000 
1.000000e+000 
1.175668e-004 
1.174313e-004 
1.173742e-004 
1.174238e-004 
1.175794e-004 
1.177928e-004 
1.180510e-004 
1.184239e-004 
1.188643e-004 
1.193085e-004 
1.198068e-004 
1.204042e-004 
1.210045e-004 
1.215965e-004 
1.222749e-004 
1.230159e-004 
1.237185e-004 
1.244564e-004 
1.253094e-004 
1.261785e-004 
1.270212e-004 
1.279769e-004 
1.290463e-004 
1.300967e-004 
1.311898e-004 
1.324627e-004 
1.338087e-004 
1.351388e-004 
1.366126e-004 
1.382797e-004 
1.399600e-004 
1.416802e-004 
1.436276e-004 
1.457100e-004 
1.477620e-004 
1.499435e-004 
1.523622e-004 
1.547989e-004 
1.572037e-004 
1.598076e-004 
1.625484e-004 
1.651738e-004 
1.678043e-004 
1.706169e-004 
1.733674e-004 
1.759084e-004 
1.784911e-004 
1.811120e-004 
1.834442e-004 
1.855490e-004 
1.876729e-004 
1.895896e-004 
1.910657e-004 
1.923608e-004 
1.935526e-004 
1.942908e-004 
1.945864e-004 
1.947495e-004 
1.946133e-004 
1.939100e-004 
1.929028e-004 
1.917517e-004 
1.901403e-004 
1.880633e-004 
1.858703e-004 
1.834692e-004 
1.806173e-004 
1.775786e-004 
1.745598e-004 
1.713127e-004 
1.678491e-004 
1.645116e-004 
1.612586e-004 
1.579076e-004 
1.547018e-004 
1.518289e-004 
1.491037e-004 
1.465529e-004 
1.444441e-004 
1.427341e-004 
1.412892e-004 
1.402813e-004 
1.398098e-004 
1.397178e-004 
1.400095e-004 
1.408205e-004 
1.420686e-004 
1.436367e-004 
1.455926e-004 
1.479341e-004 
1.505203e-004 
1.533184e-004 
1.563554e-004 
1.595355e-004 
1.627647e-004 
1.660496e-004 
1.693548e-004 
1.725858e-004 
1.757168e-004 
1.787504e-004 
1.816319e-004 
1.843207e-004 
1.868300e-004 
1.891508e-004 
1.912523e-004 
1.931432e-004 
1.948433e-004 
1.963446e-004 
1.976503e-004 
1.987876e-004 
1.997677e-004 
2.005948e-004 
2.012886e-004 
2.018693e-004 
2.023412e-004 
2.027179e-004 
2.030105e-004 
2.032280e-004 
2.033701e-004 
2.034452e-004 
2.034412e-004 
2.033572e-004 
2.031787e-004 
2.029303e-004 
2.025655e-004 
2.020212e-004 
1.000000e+000 
1.000000e+000 
1.168802e-004 
1.168112e-004 
1.167951e-004 
1.168459e-004 
1.170111e-004 
1.172861e-004 
1.175815e-004 
1.179354e-004 
1.183868e-004 
1.188820e-004 
1.193756e-004 
1.199383e-004 
1.205649e-004 
1.211853e-004 
1.218196e-004 
1.225358e-004 
1.232789e-004 
1.240119e-004 
1.248080e-004 
1.256892e-004 
1.265795e-004 
1.275058e-004 
1.285468e-004 
1.296634e-004 
1.308064e-004 
1.320559e-004 
1.334452e-004 
1.349009e-004 
1.364324e-004 
1.381271e-004 
1.399547e-004 
1.418535e-004 
1.438835e-004 
1.460911e-004 
1.484028e-004 
1.507987e-004 
1.533483e-004 
1.560380e-004 
1.587889e-004 
1.616160e-004 
1.645594e-004 
1.675624e-004 
1.705627e-004 
1.735825e-004 
1.766258e-004 
1.796202e-004 
1.825151e-004 
1.853271e-004 
1.880440e-004 
1.905854e-004 
1.929039e-004 
1.950302e-004 
1.969464e-004 
1.985511e-004 
1.998238e-004 
2.008342e-004 
2.015321e-004 
2.018033e-004 
2.017088e-004 
2.013357e-004 
2.005641e-004 
1.993344e-004 
1.978159e-004 
1.960312e-004 
1.938145e-004 
1.912562e-004 
1.885643e-004 
1.856256e-004 
1.823470e-004 
1.789884e-004 
1.756462e-004 
1.721166e-004 
1.685109e-004 
1.651246e-004 
1.618429e-004 
1.585430e-004 
1.555318e-004 
1.529260e-004 
1.504808e-004 
1.483015e-004 
1.466884e-004 
1.454848e-004 
1.445321e-004 
1.441095e-004 
1.442778e-004 
1.447454e-004 
1.455760e-004 
1.469929e-004 
1.487827e-004 
1.507579e-004 
1.531222e-004 
1.558648e-004 
1.586875e-004 
1.616156e-004 
1.647984e-004 
1.680259e-004 
1.711289e-004 
1.742635e-004 
1.774157e-004 
1.803505e-004 
1.830952e-004 
1.857881e-004 
1.882900e-004 
1.904869e-004 
1.925250e-004 
1.944374e-004 
1.960689e-004 
1.974579e-004 
1.987477e-004 
1.998716e-004 
2.007465e-004 
2.015015e-004 
2.021960e-004 
2.027248e-004 
2.031001e-004 
2.034545e-004 
2.037477e-004 
2.039005e-004 
2.039886e-004 
2.040805e-004 
2.040705e-004 
2.039498e-004 
2.037857e-004 
2.035447e-004 
2.031056e-004 
2.025874e-004 
1.000000e+000 
1.000000e+000 
1.161021e-004 
1.160195e-004 
1.160829e-004 
1.162325e-004 
1.163970e-004 
1.166612e-004 
1.170320e-004 
1.174231e-004 
1.178320e-004 
1.183523e-004 
1.189145e-004 
1.194453e-004 
1.200307e-004 
1.207154e-004 
1.213726e-004 
1.220135e-004 
1.227669e-004 
1.235799e-004 
1.243379e-004 
1.251634e-004 
1.261412e-004 
1.271271e-004 
1.281031e-004 
1.292563e-004 
1.305507e-004 
1.318251e-004 
1.332010e-004 
1.348278e-004 
1.365364e-004 
1.382548e-004 
1.402061e-004 
1.423980e-004 
1.446010e-004 
1.469041e-004 
1.495180e-004 
1.522685e-004 
1.549910e-004 
1.579186e-004 
1.611142e-004 
1.642840e-004 
1.674377e-004 
1.708373e-004 
1.743247e-004 
1.776333e-004 
1.809662e-004 
1.844556e-004 
1.877710e-004 
1.908284e-004 
1.939209e-004 
1.969440e-004 
1.995609e-004 
2.019305e-004 
2.042560e-004 
2.062269e-004 
2.076942e-004 
2.089655e-004 
2.100132e-004 
2.104979e-004 
2.105452e-004 
2.104105e-004 
2.098511e-004 
2.087120e-004 
2.072978e-004 
2.056500e-004 
2.034913e-004 
2.009412e-004 
1.982671e-004 
1.953113e-004 
1.919714e-004 
1.885277e-004 
1.850532e-004 
1.813702e-004 
1.776076e-004 
1.739900e-004 
1.704290e-004 
1.668960e-004 
1.636087e-004 
1.606161e-004 
1.578310e-004 
1.553652e-004 
1.533382e-004 
1.516890e-004 
1.504265e-004 
1.496504e-004 
1.493387e-004 
1.494457e-004 
1.500138e-004 
1.510276e-004 
1.524198e-004 
1.541864e-004 
1.563014e-004 
1.586805e-004 
1.612931e-004 
1.641150e-004 
1.670538e-004 
1.700547e-004 
1.731127e-004 
1.761558e-004 
1.791065e-004 
1.819713e-004 
1.847296e-004 
1.873029e-004 
1.896830e-004 
1.919034e-004 
1.939198e-004 
1.956988e-004 
1.972901e-004 
1.987106e-004 
1.999155e-004 
2.009322e-004 
2.018196e-004 
2.025616e-004 
2.031399e-004 
2.036196e-004 
2.040229e-004 
2.043162e-004 
2.045168e-004 
2.046835e-004 
2.047865e-004 
2.048055e-004 
2.047686e-004 
2.046902e-004 
2.045091e-004 
2.042512e-004 
2.039270e-004 
2.034432e-004 
1.000000e+000 
1.000000e+000 
1.152405e-004 
1.152391e-004 
1.152940e-004 
1.154827e-004 
1.157301e-004 
1.160101e-004 
1.163731e-004 
1.168244e-004 
1.172782e-004 
1.177630e-004 
1.183302e-004 
1.189316e-004 
1.195119e-004 
1.201446e-004 
1.208478e-004 
1.215483e-004 
1.222521e-004 
1.230469e-004 
1.239008e-004 
1.247565e-004 
1.256811e-004 
1.267338e-004 
1.278441e-004 
1.290047e-004 
1.303114e-004 
1.317676e-004 
1.332972e-004 
1.349500e-004 
1.368083e-004 
1.388190e-004 
1.409324e-004 
1.432369e-004 
1.457673e-004 
1.484324e-004 
1.512242e-004 
1.542393e-004 
1.574476e-004 
1.607413e-004 
1.641582e-004 
1.677732e-004 
1.714845e-004 
1.751947e-004 
1.789884e-004 
1.828872e-004 
1.867238e-004 
1.904529e-004 
1.941956e-004 
1.978831e-004 
2.013190e-004 
2.045597e-004 
2.077185e-004 
2.106105e-004 
2.130935e-004 
2.153442e-004 
2.173826e-004 
2.189416e-004 
2.200387e-004 
2.209076e-004 
2.213985e-004 
2.212852e-004 
2.207963e-004 
2.200748e-004 
2.188227e-004 
2.170235e-004 
2.150270e-004 
2.127485e-004 
2.099103e-004 
2.067838e-004 
2.036225e-004 
2.001293e-004 
1.962726e-004 
1.924828e-004 
1.887264e-004 
1.847095e-004 
1.807291e-004 
1.770862e-004 
1.734885e-004 
1.699036e-004 
1.667692e-004 
1.640459e-004 
1.614394e-004 
1.592264e-004 
1.576574e-004 
1.564236e-004 
1.554794e-004 
1.551748e-004 
1.554064e-004 
1.558795e-004 
1.567949e-004 
1.582870e-004 
1.600370e-004 
1.619752e-004 
1.643281e-004 
1.669478e-004 
1.695707e-004 
1.723248e-004 
1.752740e-004 
1.781524e-004 
1.809000e-004 
1.836807e-004 
1.863864e-004 
1.888298e-004 
1.911189e-004 
1.933286e-004 
1.952900e-004 
1.969774e-004 
1.985438e-004 
1.999541e-004 
2.010902e-004 
2.020506e-004 
2.029315e-004 
2.036388e-004 
2.041506e-004 
2.046016e-004 
2.049950e-004 
2.052422e-004 
2.053988e-004 
2.055604e-004 
2.056531e-004 
2.056347e-004 
2.055893e-004 
2.055398e-004 
2.053740e-004 
2.050851e-004 
2.047348e-004 
2.043387e-004 
1.000000e+000 
1.000000e+000 
1.142242e-004 
1.143286e-004 
1.144659e-004 
1.146577e-004 
1.149624e-004 
1.153246e-004 
1.156772e-004 
1.161210e-004 
1.166542e-004 
1.171678e-004 
1.176875e-004 
1.183213e-004 
1.189752e-004 
1.195789e-004 
1.202557e-004 
1.210394e-004 
1.217828e-004 
1.225308e-004 
1.234337e-004 
1.244050e-004 
1.253375e-004 
1.263991e-004 
1.276600e-004 
1.289456e-004 
1.302792e-004 
1.318725e-004 
1.336444e-004 
1.354353e-004 
1.374205e-004 
1.397289e-004 
1.421460e-004 
1.446408e-004 
1.474632e-004 
1.505599e-004 
1.536906e-004 
1.569995e-004 
1.606678e-004 
1.644573e-004 
1.682405e-004 
1.722752e-004 
1.765479e-004 
1.807460e-004 
1.849391e-004 
1.893518e-004 
1.937531e-004 
1.979244e-004 
2.020976e-004 
2.063180e-004 
2.102482e-004 
2.138841e-004 
2.174739e-004 
2.208404e-004 
2.237260e-004 
2.263262e-004 
2.287413e-004 
2.306769e-004 
2.320938e-004 
2.332373e-004 
2.340040e-004 
2.341726e-004 
2.339073e-004 
2.333343e-004 
2.322510e-004 
2.306389e-004 
2.287115e-004 
2.264300e-004 
2.236718e-004 
2.205836e-004 
2.172761e-004 
2.136587e-004 
2.097760e-004 
2.057819e-004 
2.016765e-004 
1.974622e-004 
1.932647e-004 
1.891378e-004 
1.850923e-004 
1.812285e-004 
1.776045e-004 
1.742244e-004 
1.711835e-004 
1.685427e-004 
1.662629e-004 
1.644070e-004 
1.630662e-004 
1.621651e-004 
1.616774e-004 
1.617127e-004 
1.622214e-004 
1.630683e-004 
1.643164e-004 
1.659926e-004 
1.679169e-004 
1.700376e-004 
1.724410e-004 
1.750080e-004 
1.775771e-004 
1.802125e-004 
1.829199e-004 
1.855173e-004 
1.879752e-004 
1.903909e-004 
1.926727e-004 
1.947029e-004 
1.965717e-004 
1.983221e-004 
1.998305e-004 
2.011015e-004 
2.022570e-004 
2.032604e-004 
2.040319e-004 
2.046705e-004 
2.052459e-004 
2.056738e-004 
2.059553e-004 
2.062102e-004 
2.064190e-004 
2.065064e-004 
2.065406e-004 
2.065898e-004 
2.065608e-004 
2.064267e-004 
2.062768e-004 
2.061076e-004 
2.058053e-004 
2.053617e-004 
1.000000e+000 
1.000000e+000 
1.131816e-004 
1.133410e-004 
1.135669e-004 
1.138182e-004 
1.141175e-004 
1.145275e-004 
1.149694e-004 
1.154086e-004 
1.159150e-004 
1.165062e-004 