# vtk DataFile Version 2.0
2D-ADE data file 
ASCII
DATASET RECTILINEAR_GRID
DIMENSIONS 128 128 1
X_COORDINATES 128 int
0 1 2 3 4 5 6 7 8 9 10 11 12 13 14 15 16 17 18 19 20 21 22 23 24 25 26 27 28 29 30 31 32 33 34 35 36 37 38 39 40 41 42 43 44 45 46 47 48 49 50 51 52 53 54 55 56 57 58 59 60 61 62 63 64 65 66 67 68 69 70 71 72 73 74 75 76 77 78 79 80 81 82 83 84 85 86 87 88 89 90 91 92 93 94 95 96 97 98 99 100 101 102 103 104 105 106 107 108 109 110 111 112 113 114 115 116 117 118 119 120 121 122 123 124 125 126 127 
Y_COORDINATES 128 int
0 1 2 3 4 5 6 7 8 9 10 11 12 13 14 15 16 17 18 19 20 21 22 23 24 25 26 27 28 29 30 31 32 33 34 35 36 37 38 39 40 41 42 43 44 45 46 47 48 49 50 51 52 53 54 55 56 57 58 59 60 61 62 63 64 65 66 67 68 69 70 71 72 73 74 75 76 77 78 79 80 81 82 83 84 85 86 87 88 89 90 91 92 93 94 95 96 97 98 99 100 101 102 103 104 105 106 107 108 109 110 111 112 113 114 115 116 117 118 119 120 121 122 123 124 125 126 127 
Z_COORDINATES 1 int
0
POINT_DATA 16384 
SCALARS density double 1
LOOKUP_TABLE default
1.000000e+000 
1.000000e+000 
1.000000e+000 
1.000000e+000 
1.000000e+000 
1.000000e+000 
1.000000e+000 
1.000000e+000 
1.000000e+000 
1.000000e+000 
1.000000e+000 
1.000000e+000 
1.000000e+000 
1.000000e+000 
1.000000e+000 
1.000000e+000 
1.000000e+000 
1.000000e+000 
1.000000e+000 
1.000000e+000 
1.000000e+000 
1.000000e+000 
1.000000e+000 
1.000000e+000 
1.000000e+000 
1.000000e+000 
1.000000e+000 
1.000000e+000 
1.000000e+000 
1.000000e+000 
1.000000e+000 
1.000000e+000 
1.000000e+000 
1.000000e+000 
1.000000e+000 
1.000000e+000 
1.000000e+000 
1.000000e+000 
1.000000e+000 
1.000000e+000 
1.000000e+000 
1.000000e+000 
1.000000e+000 
1.000000e+000 
1.000000e+000 
1.000000e+000 
1.000000e+000 
1.000000e+000 
1.000000e+000 
1.000000e+000 
1.000000e+000 
1.000000e+000 
1.000000e+000 
1.000000e+000 
1.000000e+000 
1.000000e+000 
1.000000e+000 
1.000000e+000 
1.000000e+000 
1.000000e+000 
1.000000e+000 
1.000000e+000 
1.000000e+000 
1.000000e+000 
1.000000e+000 
1.000000e+000 
1.000000e+000 
1.000000e+000 
1.000000e+000 
1.000000e+000 
1.000000e+000 
1.000000e+000 
1.000000e+000 
1.000000e+000 
1.000000e+000 
1.000000e+000 
1.000000e+000 
1.000000e+000 
1.000000e+000 
1.000000e+000 
1.000000e+000 
1.000000e+000 
1.000000e+000 
1.000000e+000 
1.000000e+000 
1.000000e+000 
1.000000e+000 
1.000000e+000 
1.000000e+000 
1.000000e+000 
1.000000e+000 
1.000000e+000 
1.000000e+000 
1.000000e+000 
1.000000e+000 
1.000000e+000 
1.000000e+000 
1.000000e+000 
1.000000e+000 
1.000000e+000 
1.000000e+000 
1.000000e+000 
1.000000e+000 
1.000000e+000 
1.000000e+000 
1.000000e+000 
1.000000e+000 
1.000000e+000 
1.000000e+000 
1.000000e+000 
1.000000e+000 
1.000000e+000 
1.000000e+000 
1.000000e+000 
1.000000e+000 
1.000000e+000 
1.000000e+000 
1.000000e+000 
1.000000e+000 
1.000000e+000 
1.000000e+000 
1.000000e+000 
1.000000e+000 
1.000000e+000 
1.000000e+000 
1.000000e+000 
1.000000e+000 
1.000000e+000 
1.000000e+000 
1.176224e-004 
1.175277e-004 
1.173943e-004 
1.173176e-004 
1.172742e-004 
1.174268e-004 
1.176654e-004 
1.180224e-004 
1.184426e-004 
1.190289e-004 
1.196697e-004 
1.203735e-004 
1.211544e-004 
1.220434e-004 
1.229436e-004 
1.238861e-004 
1.249223e-004 
1.260117e-004 
1.270981e-004 
1.282518e-004 
1.295075e-004 
1.307742e-004 
1.320642e-004 
1.334638e-004 
1.349479e-004 
1.364215e-004 
1.379731e-004 
1.396538e-004 
1.413730e-004 
1.430892e-004 
1.449368e-004 
1.468823e-004 
1.488104e-004 
1.507704e-004 
1.528767e-004 
1.549963e-004 
1.570603e-004 
1.591966e-004 
1.614236e-004 
1.635512e-004 
1.656188e-004 
1.677625e-004 
1.698643e-004 
1.717690e-004 
1.736318e-004 
1.754959e-004 
1.771434e-004 
1.785512e-004 
1.799170e-004 
1.811238e-004 
1.819685e-004 
1.825940e-004 
1.831147e-004 
1.832833e-004 
1.830464e-004 
1.826381e-004 
1.819955e-004 
1.808762e-004 
1.794345e-004 
1.778444e-004 
1.758886e-004 
1.734931e-004 
1.709381e-004 
1.682176e-004 
1.651098e-004 
1.617732e-004 
1.584373e-004 
1.549339e-004 
1.512069e-004 
1.475462e-004 
1.439968e-004 
1.403782e-004 
1.368458e-004 
1.336292e-004 
1.306070e-004 
1.277357e-004 
1.252615e-004 
1.232302e-004 
1.214897e-004 
1.201497e-004 
1.193719e-004 
1.190474e-004 
1.191081e-004 
1.197061e-004 
1.208355e-004 
1.223513e-004 
1.242753e-004 
1.266848e-004 
1.294511e-004 
1.324866e-004 
1.358347e-004 
1.394677e-004 
1.432325e-004 
1.471189e-004 
1.511322e-004 
1.551886e-004 
1.591812e-004 
1.631505e-004 
1.670488e-004 
1.708063e-004 
1.743770e-004 
1.778190e-004 
1.810487e-004 
1.840571e-004 
1.868312e-004 
1.894296e-004 
1.917566e-004 
1.938741e-004 
1.957595e-004 
1.974765e-004 
1.989267e-004 
2.002295e-004 
2.013176e-004 
2.022776e-004 
2.029981e-004 
2.036382e-004 
2.040701e-004 
2.044194e-004 
2.045439e-004 
2.046367e-004 
2.045251e-004 
2.043746e-004 
2.040348e-004 
2.037348e-004 
2.034621e-004 
2.033372e-004 
1.000000e+000 
1.000000e+000 
1.177066e-004 
1.176088e-004 
1.174997e-004 
1.175236e-004 
1.174951e-004 
1.176614e-004 
1.178674e-004 
1.182548e-004 
1.186359e-004 
1.191889e-004 
1.197933e-004 
1.204894e-004 
1.212097e-004 
1.220552e-004 
1.229321e-004 
1.238442e-004 
1.248188e-004 
1.258752e-004 
1.269459e-004 
1.280514e-004 
1.292540e-004 
1.304991e-004 
1.317661e-004 
1.331022e-004 
1.345434e-004 
1.359972e-004 
1.375063e-004 
1.391130e-004 
1.407991e-004 
1.424872e-004 
1.442687e-004 
1.461394e-004 
1.480451e-004 
1.499616e-004 
1.519829e-004 
1.540426e-004 
1.560959e-004 
1.581684e-004 
1.603071e-004 
1.624095e-004 
1.644732e-004 
1.665330e-004 
1.685731e-004 
1.705020e-004 
1.723530e-004 
1.741294e-004 
1.757810e-004 
1.772558e-004 
1.785871e-004 
1.797438e-004 
1.806850e-004 
1.813860e-004 
1.818573e-004 
1.820699e-004 
1.820067e-004 
1.816404e-004 
1.809810e-004 
1.800340e-004 
1.787789e-004 
1.771882e-004 
1.753188e-004 
1.731922e-004 
1.707599e-004 
1.680472e-004 
1.651652e-004 
1.620941e-004 
1.587916e-004 
1.553851e-004 
1.519701e-004 
1.484641e-004 
1.449147e-004 
1.415135e-004 
1.382491e-004 
1.350458e-004 
1.320768e-004 
1.294714e-004 
1.271042e-004 
1.250107e-004 
1.234021e-004 
1.222404e-004 
1.213926e-004 
1.210229e-004 
1.212225e-004 
1.218174e-004 
1.227838e-004 
1.243024e-004 
1.262655e-004 
1.285084e-004 
1.311195e-004 
1.341617e-004 
1.374013e-004 
1.408044e-004 
1.444675e-004 
1.483052e-004 
1.521047e-004 
1.559707e-004 
1.599000e-004 
1.637495e-004 
1.674205e-004 
1.710758e-004 
1.745852e-004 
1.778731e-004 
1.809392e-004 
1.839246e-004 
1.866176e-004 
1.890865e-004 
1.913393e-004 
1.934752e-004 
1.952638e-004 
1.969192e-004 
1.983615e-004 
1.996910e-004 
2.006855e-004 
2.016638e-004 
2.024016e-004 
2.030683e-004 
2.034319e-004 
2.038718e-004 
2.040179e-004 
2.041584e-004 
2.040334e-004 
2.040362e-004 
2.037469e-004 
2.035402e-004 
2.033416e-004 
2.032482e-004 
1.000000e+000 
1.000000e+000 
1.178294e-004 
1.177321e-004 
1.176135e-004 
1.175757e-004 
1.176526e-004 
1.178048e-004 
1.180044e-004 
1.183466e-004 
1.187844e-004 
1.192733e-004 
1.198314e-004 
1.205198e-004 
1.212469e-004 
1.219968e-004 
1.228393e-004 
1.237706e-004 
1.246929e-004 
1.256557e-004 
1.267323e-004 
1.278448e-004 
1.289422e-004 
1.301338e-004 
1.314340e-004 
1.327234e-004 
1.340411e-004 
1.355016e-004 
1.370262e-004 
1.385223e-004 
1.401180e-004 
1.418575e-004 
1.435914e-004 
1.453229e-004 
1.472102e-004 
1.491751e-004 
1.510761e-004 
1.530324e-004 
1.551378e-004 
1.572052e-004 
1.591922e-004 
1.612817e-004 
1.634239e-004 
1.654094e-004 
1.673413e-004 
1.693555e-004 
1.712546e-004 
1.729262e-004 
1.745765e-004 
1.761895e-004 
1.775125e-004 
1.786080e-004 
1.796637e-004 
1.804897e-004 
1.809253e-004 
1.811801e-004 
1.812949e-004 
1.810042e-004 
1.803452e-004 
1.795433e-004 
1.784571e-004 
1.769122e-004 
1.751232e-004 
1.731857e-004 
1.708762e-004 
1.682276e-004 
1.654894e-004 
1.625841e-004 
1.593749e-004 
1.560706e-004 
1.528025e-004 
1.494172e-004 
1.459611e-004 
1.426665e-004 
1.395075e-004 
1.363989e-004 
1.335148e-004 
1.309717e-004 
1.286728e-004 
1.266568e-004 
1.250820e-004 
1.239294e-004 
1.231353e-004 
1.227942e-004 
1.229540e-004 
1.235365e-004 
1.245318e-004 
1.259935e-004 
1.278734e-004 
1.301023e-004 
1.326794e-004 
1.355890e-004 
1.387504e-004 
1.421189e-004 
1.456694e-004 
1.493526e-004 
1.530996e-004 
1.568800e-004 
1.606530e-004 
1.643784e-004 
1.680087e-004 
1.715265e-004 
1.748976e-004 
1.781086e-004 
1.811271e-004 
1.839561e-004 
1.865765e-004 
1.889981e-004 
1.911963e-004 
1.931984e-004 
1.949918e-004 
1.966000e-004 
1.980007e-004 
1.992428e-004 
2.003028e-004 
2.012133e-004 
2.019512e-004 
2.025768e-004 
2.030438e-004 
2.033965e-004 
2.036129e-004 
2.037484e-004 
2.037466e-004 
2.036719e-004 
2.035386e-004 
2.033484e-004 
2.031288e-004 
2.029555e-004 
1.000000e+000 
1.000000e+000 
1.179082e-004 
1.177113e-004 
1.176439e-004 
1.176078e-004 
1.176764e-004 
1.178199e-004 
1.180644e-004 
1.183668e-004 
1.187937e-004 
1.192854e-004 
1.198399e-004 
1.204642e-004 
1.211789e-004 
1.219282e-004 
1.227232e-004 
1.235914e-004 
1.245124e-004 
1.254565e-004 
1.264553e-004 
1.275267e-004 
1.286288e-004 
1.297699e-004 
1.309843e-004 
1.322646e-004 
1.335740e-004 
1.349502e-004 
1.364079e-004 
1.379210e-004 
1.394745e-004 
1.411132e-004 
1.428233e-004 
1.445774e-004 
1.463805e-004 
1.482642e-004 
1.501943e-004 
1.521515e-004 
1.541479e-004 
1.561959e-004 
1.582517e-004 
1.603003e-004 
1.623534e-004 
1.644087e-004 
1.664118e-004 
1.683489e-004 
1.702376e-004 
1.720573e-004 
1.737370e-004 
1.752793e-004 
1.767117e-004 
1.779771e-004 
1.790013e-004 
1.798317e-004 
1.804838e-004 
1.808523e-004 
1.809088e-004 
1.807513e-004 
1.803369e-004 
1.795463e-004 
1.784544e-004 
1.771588e-004 
1.755336e-004 
1.735354e-004 
1.713419e-004 
1.689631e-004 
1.662453e-004 
1.633030e-004 
1.603217e-004 
1.571819e-004 
1.538288e-004 
1.505142e-004 
1.472947e-004 
1.439984e-004 
1.407613e-004 
1.378231e-004 
1.350608e-004 
1.324036e-004 
1.301229e-004 
1.282765e-004 
1.266653e-004 
1.254046e-004 
1.247139e-004 
1.244364e-004 
1.244669e-004 
1.250234e-004 
1.261173e-004 
1.275127e-004 
1.292719e-004 
1.315384e-004 
1.341286e-004 
1.368988e-004 
1.400005e-004 
1.433970e-004 
1.468619e-004 
1.504066e-004 
1.541387e-004 
1.578816e-004 
1.615157e-004 
1.651433e-004 
1.687593e-004 
1.721709e-004 
1.754105e-004 
1.785634e-004 
1.815404e-004 
1.842328e-004 
1.867702e-004 
1.891521e-004 
1.912864e-004 
1.931674e-004 
1.949362e-004 
1.965039e-004 
1.978452e-004 
1.990086e-004 
2.000914e-004 
2.009551e-004 
2.016673e-004 
2.022607e-004 
2.027847e-004 
2.030922e-004 
2.033340e-004 
2.034783e-004 
2.035572e-004 
2.034376e-004 
2.033381e-004 
2.031780e-004 
2.029648e-004 
2.026320e-004 
1.000000e+000 
1.000000e+000 
1.179546e-004 
1.177206e-004 
1.175768e-004 
1.175628e-004 
1.176142e-004 
1.177582e-004 
1.180301e-004 
1.183435e-004 
1.187195e-004 
1.192126e-004 
1.197898e-004 
1.203725e-004 
1.210318e-004 
1.217980e-004 
1.225796e-004 
1.233671e-004 
1.242603e-004 
1.252216e-004 
1.261565e-004 
1.271467e-004 
1.282590e-004 
1.293863e-004 
1.304997e-004 
1.317375e-004 
1.330740e-004 
1.343845e-004 
1.357447e-004 
1.372694e-004 
1.388284e-004 
1.403619e-004 
1.420248e-004 
1.438260e-004 
1.455884e-004 
1.473743e-004 
1.493315e-004 
1.513333e-004 
1.532557e-004 
1.552693e-004 
1.574124e-004 
1.594758e-004 
1.614698e-004 
1.635825e-004 
1.656923e-004 
1.676209e-004 
1.695180e-004 
1.714687e-004 
1.732377e-004 
1.747856e-004 
1.763123e-004 
1.777318e-004 
1.788225e-004 
1.797091e-004 
1.805109e-004 
1.810127e-004 
1.811360e-004 
1.810856e-004 
1.808216e-004 
1.801360e-004 
1.791295e-004 
1.779519e-004 
1.764447e-004 
1.745406e-004 
1.724341e-004 
1.701410e-004 
1.675169e-004 
1.646605e-004 
1.617262e-004 
1.586375e-004 
1.553735e-004 
1.521031e-004 
1.488743e-004 
1.456299e-004 
1.424626e-004 
1.394918e-004 
1.367038e-004 
1.341190e-004 
1.318410e-004 
1.299052e-004 
1.283106e-004 
1.271065e-004 
1.263300e-004 
1.259814e-004 
1.260762e-004 
1.266148e-004 
1.275828e-004 
1.289822e-004 
1.307915e-004 
1.329542e-004 
1.354576e-004 
1.382842e-004 
1.413556e-004 
1.446154e-004 
1.480663e-004 
1.516429e-004 
1.552574e-004 
1.588966e-004 
1.625530e-004 
1.661313e-004 
1.695941e-004 
1.729609e-004 
1.761976e-004 
1.792267e-004 
1.820783e-004 
1.847652e-004 
1.872417e-004 
1.894808e-004 
1.915510e-004 
1.934310e-004 
1.950942e-004 
1.965597e-004 
1.978934e-004 
1.990385e-004 
2.000121e-004 
2.008474e-004 
2.015819e-004 
2.021420e-004 
2.025949e-004 
2.029499e-004 
2.032148e-004 
2.033236e-004 
2.033838e-004 
2.033664e-004 
2.032592e-004 
2.030262e-004 
2.026919e-004 
2.023383e-004 
1.000000e+000 
1.000000e+000 
1.177977e-004 
1.175505e-004 
1.174228e-004 
1.174246e-004 
1.174899e-004 
1.176359e-004 
1.178686e-004 
1.182158e-004 
1.186167e-004 
1.190742e-004 
1.196176e-004 
1.202363e-004 
1.208792e-004 
1.215751e-004 
1.223472e-004 
1.231566e-004 
1.239814e-004 
1.248719e-004 
1.258275e-004 
1.268008e-004 
1.278094e-004 
1.289031e-004 
1.300501e-004 
1.312171e-004 
1.324546e-004 
1.337877e-004 
1.351608e-004 
1.365723e-004 
1.380862e-004 
1.396868e-004 
1.413135e-004 
1.430037e-004 
1.448094e-004 
1.466694e-004 
1.485427e-004 
1.505006e-004 
1.525536e-004 
1.546052e-004 
1.566595e-004 
1.587993e-004 
1.609670e-004 
1.630613e-004 
1.651488e-004 
1.672799e-004 
1.693226e-004 
1.712234e-004 
1.730996e-004 
1.749158e-004 
1.765032e-004 
1.779082e-004 
1.792434e-004 
1.803593e-004 
1.811367e-004 
1.817317e-004 
1.821645e-004 
1.822144e-004 
1.819090e-004 
1.814422e-004 
1.806842e-004 
1.794669e-004 
1.779920e-004 
1.763612e-004 
1.743394e-004 
1.719477e-004 
1.694649e-004 
1.668072e-004 
1.637891e-004 
1.606538e-004 
1.575767e-004 
1.543345e-004 
1.509529e-004 
1.477602e-004 
1.447075e-004 
1.416105e-004 
1.387209e-004 
1.362317e-004 
1.339269e-004 
1.318221e-004 
1.302213e-004 
1.290640e-004 
1.281578e-004 
1.277050e-004 
1.278419e-004 
1.283397e-004 
1.291736e-004 
1.305569e-004 
1.323864e-004 
1.344567e-004 
1.368866e-004 
1.397362e-004 
1.427758e-004 
1.459469e-004 
1.493778e-004 
1.529577e-004 
1.565004e-004 
1.600773e-004 
1.637221e-004 
1.672579e-004 
1.706329e-004 
1.739536e-004 
1.771514e-004 
1.801015e-004 
1.828670e-004 
1.855078e-004 
1.879134e-004 
1.900642e-004 
1.920598e-004 
1.938903e-004 
1.954702e-004 
1.968656e-004 
1.981413e-004 
1.992447e-004 
2.001476e-004 
2.009469e-004 
2.016443e-004 
2.021875e-004 
2.025963e-004 
2.029519e-004 
2.032023e-004 
2.033289e-004 
2.033663e-004 
2.033556e-004 
2.032009e-004 
2.029836e-004 
2.026957e-004 
2.022398e-004 
1.000000e+000 
1.000000e+000 
1.175593e-004 
1.173712e-004 
1.172122e-004 
1.171612e-004 
1.172530e-004 
1.174482e-004 
1.176667e-004 
1.179963e-004 
1.184285e-004 
1.188941e-004 
1.193962e-004 
1.200126e-004 
1.206743e-004 
1.213301e-004 
1.220549e-004 
1.228737e-004 
1.236819e-004 
1.245016e-004 
1.254306e-004 
1.264105e-004 
1.273622e-004 
1.283900e-004 
1.295404e-004 
1.306925e-004 
1.318541e-004 
1.331596e-004 
1.345540e-004 
1.359251e-004 
1.373832e-004 
1.390074e-004 
1.406552e-004 
1.423023e-004 
1.441088e-004 
1.460346e-004 
1.479260e-004 
1.498775e-004 
1.520022e-004 
1.541447e-004 
1.562335e-004 
1.584340e-004 
1.607312e-004 
1.629333e-004 
1.650971e-004 
1.673559e-004 
1.695604e-004 
1.715892e-004 
1.735891e-004 
1.755713e-004 
1.773338e-004 
1.788874e-004 
1.803682e-004 
1.816567e-004 
1.826147e-004 
1.833562e-004 
1.839190e-004 
1.841372e-004 
1.840026e-004 
1.836380e-004 
1.829798e-004 
1.819282e-004 
1.805736e-004 
1.789714e-004 
1.770399e-004 
1.747924e-004 
1.723277e-004 
1.696452e-004 
1.667316e-004 
1.636610e-004 
1.604880e-004 
1.572306e-004 
1.539429e-004 
1.506781e-004 
1.474798e-004 
1.444199e-004 
1.415394e-004 
1.388573e-004 
1.364598e-004 
1.344109e-004 
1.326834e-004 
1.313202e-004 
1.304236e-004 
1.299613e-004 
1.298821e-004 
1.302797e-004 
1.311732e-004 
1.324395e-004 
1.340843e-004 
1.361847e-004 
1.386275e-004 
1.413020e-004 
1.442767e-004 
1.475260e-004 
1.508759e-004 
1.543134e-004 
1.578954e-004 
1.614946e-004 
1.649955e-004 
1.684706e-004 
1.719017e-004 
1.751453e-004 
1.782022e-004 
1.811549e-004 
1.839151e-004 
1.864112e-004 
1.887268e-004 
1.908920e-004 
1.928033e-004 
1.944890e-004 
1.960389e-004 
1.974211e-004 
1.985711e-004 
1.995855e-004 
2.004992e-004 
2.012515e-004 
2.018382e-004 
2.023683e-004 
2.028017e-004 
2.030963e-004 
2.032906e-004 
2.034568e-004 
2.034983e-004 
2.034420e-004 
2.033044e-004 
2.030704e-004 
2.026384e-004 
2.021508e-004 
1.000000e+000 
1.000000e+000 
1.171843e-004 
1.169492e-004 
1.168710e-004 
1.168753e-004 
1.169398e-004 
1.171271e-004 
1.174047e-004 
1.177317e-004 
1.181281e-004 
1.186287e-004 
1.191638e-004 
1.197215e-004 
1.203581e-004 
1.210626e-004 
1.217604e-004 
1.224922e-004 
1.233126e-004 
1.241619e-004 
1.250003e-004 
1.259155e-004 
1.269193e-004 
1.279249e-004 
1.289576e-004 
1.301141e-004 
1.313392e-004 
1.325627e-004 
1.338776e-004 
1.353369e-004 
1.368285e-004 
1.383463e-004 
1.400175e-004 
1.418090e-004 
1.435973e-004 
1.454655e-004 
1.475124e-004 
1.496093e-004 
1.516873e-004 
1.538991e-004 
1.562455e-004 
1.585426e-004 
1.608309e-004 
1.632636e-004 
1.657049e-004 
1.680014e-004 
1.703104e-004 
1.726883e-004 
1.748923e-004 
1.768975e-004 
1.789114e-004 
1.808207e-004 
1.823860e-004 
1.837568e-004 
1.850663e-004 
1.860471e-004 
1.866086e-004 
1.870156e-004 
1.872137e-004 
1.869130e-004 
1.862569e-004 
1.854681e-004 
1.843008e-004 
1.826301e-004 
1.807724e-004 
1.787519e-004 
1.762782e-004 
1.735007e-004 
1.707130e-004 
1.677196e-004 
1.643997e-004 
1.610970e-004 
1.578913e-004 
1.545264e-004 
1.511561e-004 
1.480870e-004 
1.451631e-004 
1.422821e-004 
1.397597e-004 
1.376696e-004 
1.357865e-004 
1.342352e-004 
1.332536e-004 
1.326861e-004 
1.324288e-004 
1.327016e-004 
1.335141e-004 
1.346513e-004 
1.361704e-004 
1.381950e-004 
1.405554e-004 
1.431340e-004 
1.460417e-004 
1.492343e-004 
1.525204e-004 
1.559061e-004 
1.594440e-004 
1.629921e-004 
1.664519e-004 
1.698881e-004 
1.732673e-004 
1.764617e-004 
1.794802e-004 
1.823751e-004 
1.850696e-004 
1.875141e-004 
1.897736e-004 
1.918579e-004 
1.937015e-004 
1.953304e-004 
1.968060e-004 
1.981049e-004 
1.992017e-004 
2.001575e-004 
2.009978e-004 
2.016918e-004 
2.022497e-004 
2.027277e-004 
2.031131e-004 
2.033867e-004 
2.035731e-004 
2.037069e-004 
2.037362e-004 
2.036571e-004 
2.034954e-004 
2.032704e-004 
2.029059e-004 
2.023489e-004 
1.000000e+000 
1.000000e+000 
1.167438e-004 
1.165338e-004 
1.164240e-004 
1.164603e-004 
1.165571e-004 
1.167374e-004 
1.170388e-004 
1.174059e-004 
1.177943e-004 
1.182760e-004 
1.188400e-004 
1.194091e-004 
1.200061e-004 
1.206974e-004 
1.214147e-004 
1.221177e-004 
1.228881e-004 
1.237384e-004 
1.245754e-004 
1.254366e-004 
1.264083e-004 
1.274286e-004 
1.284403e-004 
1.295490e-004 
1.307800e-004 
1.320291e-004 
1.333223e-004 
1.347734e-004 
1.363177e-004 
1.378770e-004 
1.395557e-004 
1.414028e-004 
1.432944e-004 
1.452345e-004 
1.473451e-004 
1.495735e-004 
1.518076e-004 
1.541341e-004 
1.566138e-004 
1.591185e-004 
1.616094e-004 
1.641968e-004 
1.668396e-004 
1.694064e-004 
1.719378e-004 
1.744936e-004 
1.769583e-004 
1.792618e-004 
1.814738e-004 
1.835721e-004 
1.854404e-004 
1.870781e-004 
1.885244e-004 
1.897123e-004 
1.905806e-004 
1.911539e-004 
1.914309e-004 
1.913668e-004 
1.909486e-004 
1.901870e-004 
1.890895e-004 
1.876597e-004 
1.858850e-004 
1.837834e-004 
1.814197e-004 
1.788012e-004 
1.759027e-004 
1.728127e-004 
1.696252e-004 
1.662948e-004 
1.628459e-004 
1.594501e-004 
1.561333e-004 
1.528221e-004 
1.496602e-004 
1.468016e-004 
1.441496e-004 
1.417087e-004 
1.397008e-004 
1.381246e-004 
1.368384e-004 
1.359863e-004 
1.357072e-004 
1.358258e-004 
1.362992e-004 
1.373217e-004 
1.388226e-004 
1.405947e-004 
1.427398e-004 
1.453356e-004 
1.481519e-004 
1.511092e-004 
1.543515e-004 
1.577706e-004 
1.611526e-004 
1.645726e-004 
1.680855e-004 
1.714849e-004 
1.747055e-004 
1.778800e-004 
1.809375e-004 
1.837168e-004 
1.863013e-004 
1.887714e-004 
1.909924e-004 
1.929297e-004 
1.947242e-004 
1.963600e-004 
1.977277e-004 
1.989063e-004 
1.999973e-004 
2.009155e-004 
2.016304e-004 
2.022657e-004 
2.028352e-004 
2.032440e-004 
2.035414e-004 
2.038212e-004 
2.040134e-004 
2.040681e-004 
2.040739e-004 
2.040501e-004 
2.038803e-004 
2.035607e-004 
2.031371e-004 
2.026480e-004 
1.000000e+000 
1.000000e+000 
1.161097e-004 
1.159567e-004 
1.158893e-004 
1.159348e-004 
1.160903e-004 
1.163084e-004 
1.165767e-004 
1.169640e-004 
1.174210e-004 
1.178847e-004 
1.184053e-004 
1.190258e-004 
1.196495e-004 
1.202663e-004 
1.209701e-004 
1.217360e-004 
1.224639e-004 
1.232289e-004 
1.241097e-004 
1.250074e-004 
1.258815e-004 
1.268718e-004 
1.279780e-004 
1.290689e-004 
1.302080e-004 
1.315314e-004 
1.329321e-004 
1.343237e-004 
1.358655e-004 
1.376063e-004 
1.393668e-004 
1.411751e-004 
1.432175e-004 
1.454013e-004 
1.475621e-004 
1.498599e-004 
1.524008e-004 
1.549655e-004 
1.575045e-004 
1.602475e-004 
1.631308e-004 
1.659019e-004 
1.686803e-004 
1.716412e-004 
1.745393e-004 
1.772262e-004 
1.799514e-004 
1.827099e-004 
1.851733e-004 
1.874021e-004 
1.896407e-004 
1.916620e-004 
1.932311e-004 
1.946067e-004 
1.958654e-004 
1.966564e-004 
1.969895e-004 
1.971746e-004 
1.970445e-004 
1.963312e-004 
1.952980e-004 
1.941049e-004 
1.924360e-004 
1.902866e-004 
1.880071e-004 
1.855063e-004 
1.825426e-004 
1.793814e-004 
1.762308e-004 
1.728443e-004 
1.692355e-004 
1.657489e-004 
1.623447e-004 
1.588428e-004 
1.554884e-004 
1.524712e-004 
1.496079e-004 
1.469278e-004 
1.446999e-004 
1.428824e-004 
1.413438e-004 
1.402572e-004 
1.397222e-004 
1.395830e-004 
1.398445e-004 
1.406418e-004 
1.418919e-004 
1.434780e-004 
1.454664e-004 
1.478530e-004 
1.504958e-004 
1.533609e-004 
1.564723e-004 
1.597323e-004 
1.630458e-004 
1.664172e-004 
1.698084e-004 
1.731240e-004 
1.763372e-004 
1.794482e-004 
1.824016e-004 
1.851566e-004 
1.877257e-004 
1.900991e-004 
1.922462e-004 
1.941765e-004 
1.959091e-004 
1.974367e-004 
1.987635e-004 
1.999173e-004 
2.009092e-004 
2.017446e-004 
2.024441e-004 
2.030280e-004 
2.035011e-004 
2.038779e-004 
2.041699e-004 
2.043859e-004 
2.045261e-004 
2.045993e-004 
2.045929e-004 
2.045057e-004 
2.043230e-004 
2.040702e-004 
2.036992e-004 
2.031452e-004 
1.000000e+000 
1.000000e+000 
1.153984e-004 
1.153141e-004 
1.152867e-004 
1.153332e-004 
1.155002e-004 
1.157819e-004 
1.160882e-004 
1.164577e-004 
1.169276e-004 
1.174433e-004 
1.179595e-004 
1.185465e-004 
1.191973e-004 
1.198420e-004 
1.205016e-004 
1.212433e-004 
1.220113e-004 
1.227704e-004 
1.235945e-004 
1.245047e-004 
1.254258e-004 
1.263870e-004 
1.274667e-004 
1.286254e-004 
1.298154e-004 
1.311185e-004 
1.325672e-004 
1.340879e-004 
1.356922e-004 
1.374679e-004 
1.393831e-004 
1.413774e-004 
1.435119e-004 
1.458321e-004 
1.482633e-004 
1.507870e-004 
1.534725e-004 
1.563041e-004 
1.592026e-004 
1.621833e-004 
1.652846e-004 
1.684479e-004 
1.716105e-004 
1.747937e-004 
1.779990e-004 
1.811527e-004 
1.842034e-004 
1.871659e-004 
1.900260e-004 
1.927022e-004 
1.951462e-004 
1.973866e-004 
1.994046e-004 
2.010980e-004 
2.024451e-004 
2.035146e-004 
2.042560e-004 
2.045545e-004 
2.044707e-004 
2.040915e-004 
2.032974e-004 
2.020285e-004 
2.004547e-004 
1.985993e-004 
1.962971e-004 
1.936392e-004 
1.908350e-004 
1.877729e-004 
1.843603e-004 
1.808594e-004 
1.773684e-004 
1.736849e-004 
1.699223e-004 
1.663785e-004 
1.629404e-004 
1.594872e-004 
1.563284e-004 
1.535826e-004 
1.510066e-004 
1.487077e-004 
1.469880e-004 
1.456919e-004 
1.446617e-004 
1.441783e-004 
1.443021e-004 
1.447416e-004 
1.455610e-004 
1.469827e-004 
1.487917e-004 
1.508000e-004 
1.532103e-004 
1.560090e-004 
1.588963e-004 
1.618963e-004 
1.651560e-004 
1.684625e-004 
1.716458e-004 
1.748603e-004 
1.780896e-004 
1.810977e-004 
1.839115e-004 
1.866679e-004 
1.892262e-004 
1.914735e-004 
1.935556e-004 
1.955048e-004 
1.971666e-004 
1.985805e-004 
1.998895e-004 
2.010274e-004 
2.019123e-004 
2.026742e-004 
2.033723e-004 
2.039022e-004 
2.042775e-004 
2.046306e-004 
2.049214e-004 
2.050716e-004 
2.051572e-004 
2.052461e-004 
2.052327e-004 
2.051092e-004 
2.049414e-004 
2.046950e-004 
2.042489e-004 
2.037231e-004 
1.000000e+000 
1.000000e+000 
1.145871e-004 
1.144897e-004 
1.145452e-004 
1.146920e-004 
1.148592e-004 
1.151323e-004 
1.155155e-004 
1.159230e-004 
1.163521e-004 
1.168951e-004 
1.174803e-004 
1.180356e-004 
1.186468e-004 
1.193567e-004 
1.200384e-004 
1.207050e-004 
1.214849e-004 
1.223238e-004 
1.231093e-004 
1.239655e-004 
1.249760e-004 
1.259972e-004 
1.270138e-004 
1.282132e-004 
1.295581e-004 
1.308896e-004 
1.323308e-004 
1.340301e-004 
1.358182e-004 
1.376257e-004 
1.396755e-004 
1.419740e-004 
1.442926e-004 
1.467215e-004 
1.494699e-004 
1.523626e-004 
1.552358e-004 
1.583221e-004 
1.616823e-004 
1.650218e-004 
1.683501e-004 
1.719274e-004 
1.755934e-004 
1.790810e-004 
1.825916e-004 
1.862556e-004 
1.897406e-004 
1.929616e-004 
1.962100e-004 
1.993795e-004 
2.021322e-004 
2.046259e-004 
2.070622e-004 
2.091299e-004 
2.106788e-004 
2.120160e-004 
2.131132e-004 
2.136304e-004 
2.136932e-004 
2.135566e-004 
2.129780e-004 
2.118028e-004 
2.103358e-004 
2.086189e-004 
2.063757e-004 
2.037267e-004 
2.009402e-004 
1.978594e-004 
1.943838e-004 
1.907951e-004 
1.871678e-004 
1.833258e-004 
1.794006e-004 
1.756181e-004 
1.718921e-004 
1.681965e-004 
1.647509e-004 
1.616060e-004 
1.586770e-004 
1.560778e-004 
1.539291e-004 
1.521713e-004 
1.508155e-004 
1.499619e-004 
1.495884e-004 
1.496507e-004 
1.501912e-004 
1.511930e-004 
1.525887e-004 
1.543740e-004 
1.565205e-004 
1.589423e-004 
1.616078e-004 
1.644908e-004 
1.674959e-004 
1.705673e-004 
1.736982e-004 
1.768142e-004 
1.798360e-004 
1.827695e-004 
1.855927e-004 
1.882252e-004 
1.906591e-004 
1.929274e-004 
1.949851e-004 
1.967987e-004 
1.984188e-004 
1.998624e-004 
2.010845e-004 
2.021138e-004 
2.030098e-004 
2.037569e-004 
2.043371e-004 
2.048168e-004 
2.052186e-004 
2.055092e-004 
2.057062e-004 
2.058694e-004 
2.059688e-004 
2.059842e-004 
2.059438e-004 
2.058619e-004 
2.056768e-004 
2.054148e-004 
2.050855e-004 
2.045943e-004 
1.000000e+000 
1.000000e+000 
1.136884e-004 
1.136739e-004 
1.137209e-004 
1.139086e-004 
1.141603e-004 
1.144506e-004 
1.148285e-004 
1.152982e-004 
1.157730e-004 
1.162817e-004 
1.168742e-004 
1.175010e-004 
1.181072e-004 
1.187666e-004 
1.194957e-004 
1.202218e-004 
1.209526e-004 
1.217757e-004 
1.226582e-004 
1.235455e-004 
1.245057e-004 
1.255976e-004 
1.267512e-004 
1.279621e-004 
1.293261e-004 
1.308459e-004 
1.324473e-004 
1.341820e-004 
1.361309e-004 
1.382412e-004 
1.404651e-004 
1.428909e-004 
1.455520e-004 
1.483577e-004 
1.513011e-004 
1.544769e-004 
1.578536e-004 
1.613239e-004 
1.649249e-004 
1.687287e-004 
1.726325e-004 
1.765386e-004 
1.805293e-004 
1.846238e-004 
1.886541e-004 
1.925736e-004 
1.965005e-004 
2.003648e-004 
2.039691e-004 
2.073681e-004 
2.106731e-004 
2.136988e-004 
2.163016e-004 
2.186569e-004 
2.207841e-004 
2.224156e-004 
2.235681e-004 
2.244747e-004 
2.249858e-004 
2.248748e-004 
2.243703e-004 
2.236157e-004 
2.223134e-004 
2.204470e-004 
2.183675e-004 
2.159909e-004 
2.130402e-004 
2.097880e-004 
2.064894e-004 
2.028486e-004 
1.988353e-004 
1.948819e-004 
1.909568e-004 
1.867676e-004 
1.826136e-004 
1.787982e-004 
1.750304e-004 
1.712805e-004 
1.679883e-004 
1.651159e-004 
1.623709e-004 
1.600322e-004 
1.583514e-004 
1.570204e-004 
1.559954e-004 
1.556267e-004 
1.558103e-004 
1.562520e-004 
1.571528e-004 
1.586451e-004 
1.604088e-004 
1.623740e-004 
1.647651e-004 
1.674313e-004 
1.701081e-004 
1.729221e-004 
1.759339e-004 
1.788760e-004 
1.816879e-004 
1.845312e-004 
1.872955e-004 
1.897939e-004 
1.921335e-004 
1.943876e-004 
1.963873e-004 
1.981077e-004 
1.997012e-004 
2.011323e-004 
2.022842e-004 
2.032565e-004 
2.041445e-004 
2.048552e-004 
2.053682e-004 
2.058184e-004 
2.062087e-004 
2.064521e-004 
2.066048e-004 
2.067619e-004 
2.068500e-004 
2.068277e-004 
2.067788e-004 
2.067256e-004 
2.065561e-004 
2.062634e-004 
2.059078e-004 
2.055058e-004 
1.000000e+000 
1.000000e+000 
1.126268e-004 
1.127189e-004 
1.128509e-004 
1.130448e-004 
1.133562e-004 
1.137295e-004 
1.140986e-004 
1.145635e-004 
1.151194e-004 
1.156576e-004 
1.162044e-004 
1.168659e-004 
1.175463e-004 
1.181773e-004 
1.188824e-004 
1.196937e-004 
1.204645e-004 
1.212429e-004 
1.221783e-004 
1.231836e-004 
1.241545e-004 
1.252608e-004 
1.265714e-004 
1.279126e-004 
1.293109e-004 
1.309781e-004 
1.328318e-004 
1.347148e-004 
1.368041e-004 
1.392273e-004 
1.417694e-004 
1.444016e-004 
1.473736e-004 
1.506300e-004 
1.539306e-004 
1.574205e-004 
1.612787e-004 
1.652651e-004 
1.692522e-004 
1.734967e-004 
1.779823e-004 
1.823949e-004 
1.868034e-004 
1.914301e-004 
1.960416e-004 
2.004183e-004 
2.047905e-004 
2.092015e-004 
2.133120e-004 
2.171173e-004 
2.208639e-004 
2.243733e-004 
2.273869e-004 
2.300994e-004 
2.326103e-004 
2.346244e-004 
2.361022e-004 
2.372886e-004 
2.380799e-004 
2.382547e-004 
2.379776e-004 
2.373746e-004 
2.362435e-004 
2.345666e-004 
2.325579e-004 
2.301790e-004 
2.273087e-004 
2.240948e-004 
2.206486e-004 
2.168812e-004 
2.128389e-004 
2.086769e-004 
2.043968e-004 
2.000033e-004 
1.956240e-004 
1.913141e-004 
1.870868e-004 
1.830451e-004 
1.792483e-004 
1.757025e-004 
1.725057e-004 
1.697203e-004 
1.673081e-004 
1.653342e-004 
1.638910e-004 
1.629031e-004 
1.623450e-004 
1.623271e-004 
1.627990e-004 
1.636244e-004 
1.648663e-004 
1.665502e-004 
1.684940e-004 
1.706446e-004 
1.730872e-004 
1.756997e-004 
1.783189e-004 
1.810079e-004 
1.837701e-004 
1.864213e-004 
1.889315e-004 
1.913969e-004 
1.937240e-004 
1.957946e-004 
1.976991e-004 
1.994799e-004 
2.010128e-004 
2.023034e-004 
2.034739e-004 
2.044874e-004 
2.052650e-004 
2.059068e-004 
2.064825e-004 
2.069083e-004 
2.071864e-004 
2.074372e-004 
2.076411e-004 
2.077235e-004 
2.077531e-004 
2.077981e-004 
2.077651e-004 
2.076275e-004 
2.074742e-004 
2.073020e-004 
2.069965e-004 
2.065482e-004 
1.000000e+000 
1.000000e+000 
1.115325e-004 
1.116836e-004 
1.119058e-004 
1.121596e-004 
1.124679e-004 
1.128925e-004 
1.133522e-004 
1.138135e-004 
1.143453e-004 
1.149635e-004 