# vtk DataFile Version 2.0
2D-ADE data file 
ASCII
DATASET RECTILINEAR_GRID
DIMENSIONS 128 128 1
X_COORDINATES 128 int
0 1 2 3 4 5 6 7 8 9 10 11 12 13 14 15 16 17 18 19 20 21 22 23 24 25 26 27 28 29 30 31 32 33 34 35 36 37 38 39 40 41 42 43 44 45 46 47 48 49 50 51 52 53 54 55 56 57 58 59 60 61 62 63 64 65 66 67 68 69 70 71 72 73 74 75 76 77 78 79 80 81 82 83 84 85 86 87 88 89 90 91 92 93 94 95 96 97 98 99 100 101 102 103 104 105 106 107 108 109 110 111 112 113 114 115 116 117 118 119 120 121 122 123 124 125 126 127 
Y_COORDINATES 128 int
0 1 2 3 4 5 6 7 8 9 10 11 12 13 14 15 16 17 18 19 20 21 22 23 24 25 26 27 28 29 30 31 32 33 34 35 36 37 38 39 40 41 42 43 44 45 46 47 48 49 50 51 52 53 54 55 56 57 58 59 60 61 62 63 64 65 66 67 68 69 70 71 72 73 74 75 76 77 78 79 80 81 82 83 84 85 86 87 88 89 90 91 92 93 94 95 96 97 98 99 100 101 102 103 104 105 106 107 108 109 110 111 112 113 114 115 116 117 118 119 120 121 122 123 124 125 126 127 
Z_COORDINATES 1 int
0
POINT_DATA 16384 
SCALARS density double 1
LOOKUP_TABLE default
1.000000e+000 
1.000000e+000 
1.000000e+000 
1.000000e+000 
1.000000e+000 
1.000000e+000 
1.000000e+000 
1.000000e+000 
1.000000e+000 
1.000000e+000 
1.000000e+000 
1.000000e+000 
1.000000e+000 
1.000000e+000 
1.000000e+000 
1.000000e+000 
1.000000e+000 
1.000000e+000 
1.000000e+000 
1.000000e+000 
1.000000e+000 
1.000000e+000 
1.000000e+000 
1.000000e+000 
1.000000e+000 
1.000000e+000 
1.000000e+000 
1.000000e+000 
1.000000e+000 
1.000000e+000 
1.000000e+000 
1.000000e+000 
1.000000e+000 
1.000000e+000 
1.000000e+000 
1.000000e+000 
1.000000e+000 
1.000000e+000 
1.000000e+000 
1.000000e+000 
1.000000e+000 
1.000000e+000 
1.000000e+000 
1.000000e+000 
1.000000e+000 
1.000000e+000 
1.000000e+000 
1.000000e+000 
1.000000e+000 
1.000000e+000 
1.000000e+000 
1.000000e+000 
1.000000e+000 
1.000000e+000 
1.000000e+000 
1.000000e+000 
1.000000e+000 
1.000000e+000 
1.000000e+000 
1.000000e+000 
1.000000e+000 
1.000000e+000 
1.000000e+000 
1.000000e+000 
1.000000e+000 
1.000000e+000 
1.000000e+000 
1.000000e+000 
1.000000e+000 
1.000000e+000 
1.000000e+000 
1.000000e+000 
1.000000e+000 
1.000000e+000 
1.000000e+000 
1.000000e+000 
1.000000e+000 
1.000000e+000 
1.000000e+000 
1.000000e+000 
1.000000e+000 
1.000000e+000 
1.000000e+000 
1.000000e+000 
1.000000e+000 
1.000000e+000 
1.000000e+000 
1.000000e+000 
1.000000e+000 
1.000000e+000 
1.000000e+000 
1.000000e+000 
1.000000e+000 
1.000000e+000 
1.000000e+000 
1.000000e+000 
1.000000e+000 
1.000000e+000 
1.000000e+000 
1.000000e+000 
1.000000e+000 
1.000000e+000 
1.000000e+000 
1.000000e+000 
1.000000e+000 
1.000000e+000 
1.000000e+000 
1.000000e+000 
1.000000e+000 
1.000000e+000 
1.000000e+000 
1.000000e+000 
1.000000e+000 
1.000000e+000 
1.000000e+000 
1.000000e+000 
1.000000e+000 
1.000000e+000 
1.000000e+000 
1.000000e+000 
1.000000e+000 
1.000000e+000 
1.000000e+000 
1.000000e+000 
1.000000e+000 
1.000000e+000 
1.000000e+000 
1.000000e+000 
1.000000e+000 
1.362667e-004 
1.362197e-004 
1.361946e-004 
1.362223e-004 
1.362633e-004 
1.363898e-004 
1.365805e-004 
1.367915e-004 
1.370231e-004 
1.373308e-004 
1.376731e-004 
1.379990e-004 
1.383747e-004 
1.388099e-004 
1.392429e-004 
1.396637e-004 
1.401668e-004 
1.406956e-004 
1.411999e-004 
1.417300e-004 
1.423515e-004 
1.429513e-004 
1.435363e-004 
1.441928e-004 
1.449099e-004 
1.455672e-004 
1.462530e-004 
1.470301e-004 
1.478049e-004 
1.485167e-004 
1.493124e-004 
1.501688e-004 
1.509573e-004 
1.517240e-004 
1.526026e-004 
1.534624e-004 
1.542230e-004 
1.550262e-004 
1.559070e-004 
1.566721e-004 
1.573622e-004 
1.581358e-004 
1.588845e-004 
1.594539e-004 
1.600128e-004 
1.606263e-004 
1.610818e-004 
1.613661e-004 
1.616952e-004 
1.619683e-004 
1.619891e-004 
1.619152e-004 
1.618761e-004 
1.616350e-004 
1.611467e-004 
1.606570e-004 
1.601097e-004 
1.592687e-004 
1.582918e-004 
1.573548e-004 
1.562390e-004 
1.548690e-004 
1.535176e-004 
1.521698e-004 
1.505931e-004 
1.489327e-004 
1.473993e-004 
1.458064e-004 
1.440763e-004 
1.424744e-004 
1.410209e-004 
1.395080e-004 
1.380618e-004 
1.368854e-004 
1.358299e-004 
1.348203e-004 
1.340777e-004 
1.336271e-004 
1.332903e-004 
1.331541e-004 
1.333711e-004 
1.338193e-004 
1.344155e-004 
1.353109e-004 
1.365070e-004 
1.378550e-004 
1.393838e-004 
1.411913e-004 
1.431652e-004 
1.452266e-004 
1.474486e-004 
1.498307e-004 
1.522389e-004 
1.546833e-004 
1.572069e-004 
1.597446e-004 
1.622089e-004 
1.646626e-004 
1.670874e-004 
1.694173e-004 
1.716249e-004 
1.737804e-004 
1.758155e-004 
1.777115e-004 
1.794730e-004 
1.811537e-004 
1.826638e-004 
1.840469e-004 
1.852983e-004 
1.864591e-004 
1.874389e-004 
1.883322e-004 
1.890936e-004 
1.897731e-004 
1.902800e-004 
1.907416e-004 
1.910605e-004 
1.913161e-004 
1.914072e-004 
1.914833e-004 
1.914116e-004 
1.913054e-004 
1.910669e-004 
1.908636e-004 
1.906746e-004 
1.905844e-004 
1.000000e+000 
1.000000e+000 
1.362968e-004 
1.362511e-004 
1.362233e-004 
1.362889e-004 
1.363367e-004 
1.364457e-004 
1.366123e-004 
1.368357e-004 
1.370562e-004 
1.373270e-004 
1.376593e-004 
1.379902e-004 
1.383415e-004 
1.387399e-004 
1.391807e-004 
1.395946e-004 
1.400623e-004 
1.405664e-004 
1.410865e-004 
1.415897e-004 
1.421719e-004 
1.427634e-004 
1.433570e-004 
1.439649e-004 
1.446501e-004 
1.453119e-004 
1.459854e-004 
1.466998e-004 
1.474605e-004 
1.481787e-004 
1.489337e-004 
1.497291e-004 
1.505260e-004 
1.512858e-004 
1.520987e-004 
1.529194e-004 
1.537063e-004 
1.544747e-004 
1.552821e-004 
1.560484e-004 
1.567664e-004 
1.574725e-004 
1.581715e-004 
1.587886e-004 
1.593521e-004 
1.598810e-004 
1.603472e-004 
1.607081e-004 
1.609992e-004 
1.612132e-004 
1.613246e-004 
1.613147e-004 
1.612039e-004 
1.609846e-004 
1.606451e-004 
1.601641e-004 
1.595626e-004 
1.588552e-004 
1.580193e-004 
1.570322e-004 
1.559521e-004 
1.547949e-004 
1.535055e-004 
1.521056e-004 
1.506915e-004 
1.492283e-004 
1.476617e-004 
1.460998e-004 
1.446113e-004 
1.430951e-004 
1.415766e-004 
1.402150e-004 
1.389715e-004 
1.377494e-004 
1.366903e-004 
1.358918e-004 
1.352096e-004 
1.346551e-004 
1.344113e-004 
1.344242e-004 
1.345507e-004 
1.349350e-004 
1.356611e-004 
1.365569e-004 
1.375961e-004 
1.389576e-004 
1.405518e-004 
1.422239e-004 
1.440733e-004 
1.461829e-004 
1.483492e-004 
1.505491e-004 
1.529068e-004 
1.553646e-004 
1.577364e-004 
1.601366e-004 
1.625997e-004 
1.649971e-004 
1.672498e-004 
1.695265e-004 
1.717315e-004 
1.737807e-004 
1.756925e-004 
1.776032e-004 
1.793268e-004 
1.809020e-004 
1.823633e-004 
1.837864e-004 
1.849642e-004 
1.860664e-004 
1.870537e-004 
1.879781e-004 
1.886539e-004 
1.893416e-004 
1.898762e-004 
1.903532e-004 
1.906052e-004 
1.909336e-004 
1.910506e-004 
1.911474e-004 
1.910586e-004 
1.910766e-004 
1.908739e-004 
1.907200e-004 
1.905875e-004 
1.905333e-004 
1.000000e+000 
1.000000e+000 
1.363052e-004 
1.362903e-004 
1.362580e-004 
1.362674e-004 
1.363593e-004 
1.364875e-004 
1.366116e-004 
1.368088e-004 
1.370686e-004 
1.373193e-004 
1.375888e-004 
1.379414e-004 
1.383105e-004 
1.386517e-004 
1.390539e-004 
1.395213e-004 
1.399586e-004 
1.403940e-004 
1.409242e-004 
1.414705e-004 
1.419686e-004 
1.425209e-004 
1.431625e-004 
1.437596e-004 
1.443373e-004 
1.450184e-004 
1.457340e-004 
1.463702e-004 
1.470526e-004 
1.478411e-004 
1.485827e-004 
1.492636e-004 
1.500542e-004 
1.508886e-004 
1.516134e-004 
1.523457e-004 
1.531983e-004 
1.539883e-004 
1.546651e-004 
1.554239e-004 
1.562326e-004 
1.568818e-004 
1.574776e-004 
1.581759e-004 
1.587919e-004 
1.592165e-004 
1.596693e-004 
1.601538e-004 
1.604271e-004 
1.605612e-004 
1.607598e-004 
1.608486e-004 
1.606762e-004 
1.604632e-004 
1.602628e-004 
1.598197e-004 
1.591777e-004 
1.585682e-004 
1.578548e-004 
1.568661e-004 
1.558155e-004 
1.547957e-004 
1.535787e-004 
1.521896e-004 
1.508666e-004 
1.495192e-004 
1.479943e-004 
1.464820e-004 
1.450938e-004 
1.436529e-004 
1.421791e-004 
1.408810e-004 
1.397070e-004 
1.385404e-004 
1.375284e-004 
1.367655e-004 
1.361262e-004 
1.356208e-004 
1.353921e-004 
1.354040e-004 
1.355696e-004 
1.359729e-004 
1.366619e-004 
1.375481e-004 
1.386172e-004 
1.399358e-004 
1.414652e-004 
1.431388e-004 
1.449759e-004 
1.469860e-004 
1.491025e-004 
1.512989e-004 
1.535836e-004 
1.559294e-004 
1.582842e-004 
1.606441e-004 
1.629970e-004 
1.653144e-004 
1.675661e-004 
1.697555e-004 
1.718625e-004 
1.738755e-004 
1.757764e-004 
1.775744e-004 
1.792521e-004 
1.808146e-004 
1.822462e-004 
1.835666e-004 
1.847602e-004 
1.858423e-004 
1.867957e-004 
1.876526e-004 
1.883903e-004 
1.890308e-004 
1.895558e-004 
1.900061e-004 
1.903438e-004 
1.906008e-004 
1.907621e-004 
1.908648e-004 
1.908666e-004 
1.908164e-004 
1.907266e-004 
1.905946e-004 
1.904400e-004 
1.903212e-004 
1.000000e+000 
1.000000e+000 
1.362851e-004 
1.362236e-004 
1.362317e-004 
1.362512e-004 
1.363206e-004 
1.364459e-004 
1.365976e-004 
1.367714e-004 
1.370021e-004 
1.372713e-004 
1.375426e-004 
1.378502e-004 
1.382041e-004 
1.385743e-004 
1.389450e-004 
1.393657e-004 
1.398146e-004 
1.402668e-004 
1.407342e-004 
1.412552e-004 
1.417841e-004 
1.423176e-004 
1.428838e-004 
1.434930e-004 
1.440950e-004 
1.447139e-004 
1.453731e-004 
1.460552e-004 
1.467254e-004 
1.474255e-004 
1.481588e-004 
1.488936e-004 
1.496190e-004 
1.503781e-004 
1.511516e-004 
1.519073e-004 
1.526550e-004 
1.534279e-004 
1.541881e-004 
1.549100e-004 
1.556196e-004 
1.563347e-004 
1.570005e-004 
1.576043e-004 
1.581884e-004 
1.587453e-004 
1.592048e-004 
1.595844e-004 
1.599355e-004 
1.602071e-004 
1.603337e-004 
1.603831e-004 
1.603854e-004 
1.602397e-004 
1.599318e-004 
1.595737e-004 
1.591266e-004 
1.584768e-004 
1.577086e-004 
1.569199e-004 
1.559826e-004 
1.548548e-004 
1.537095e-004 
1.525444e-004 
1.511990e-004 
1.497768e-004 
1.484429e-004 
1.470596e-004 
1.455566e-004 
1.441592e-004 
1.428965e-004 
1.415760e-004 
1.403063e-004 
1.392945e-004 
1.383935e-004 
1.375086e-004 
1.368797e-004 
1.365417e-004 
1.362782e-004 
1.361812e-004 
1.364525e-004 
1.369292e-004 
1.374955e-004 
1.383605e-004 
1.395417e-004 
1.408095e-004 
1.422261e-004 
1.439517e-004 
1.458240e-004 
1.477112e-004 
1.497819e-004 
1.520330e-004 
1.542581e-004 
1.564852e-004 
1.588511e-004 
1.612097e-004 
1.634511e-004 
1.656987e-004 
1.679731e-004 
1.700952e-004 
1.720986e-004 
1.740900e-004 
1.759884e-004 
1.776844e-004 
1.793056e-004 
1.808669e-004 
1.822648e-004 
1.834906e-004 
1.846811e-004 
1.857548e-004 
1.866633e-004 
1.874604e-004 
1.882331e-004 
1.888474e-004 
1.893450e-004 
1.897758e-004 
1.901693e-004 
1.903892e-004 
1.905605e-004 
1.906784e-004 
1.907437e-004 
1.906498e-004 
1.905814e-004 
1.904808e-004 
1.903282e-004 
1.900875e-004 
1.000000e+000 
1.000000e+000 
1.362442e-004 
1.361586e-004 
1.361425e-004 
1.361998e-004 
1.362565e-004 
1.363549e-004 
1.365356e-004 
1.367251e-004 
1.369079e-004 
1.371675e-004 
1.374754e-004 
1.377550e-004 
1.380598e-004 
1.384525e-004 
1.388374e-004 
1.391954e-004 
1.396261e-004 
1.401162e-004 
1.405529e-004 
1.410083e-004 
1.415616e-004 
1.421125e-004 
1.426072e-004 
1.431849e-004 
1.438347e-004 
1.444218e-004 
1.450026e-004 
1.457050e-004 
1.464067e-004 
1.470283e-004 
1.477209e-004 
1.485115e-004 
1.492194e-004 
1.498914e-004 
1.506867e-004 
1.514927e-004 
1.521755e-004 
1.529034e-004 
1.537345e-004 
1.544660e-004 
1.551026e-004 
1.558438e-004 
1.565879e-004 
1.571598e-004 
1.577139e-004 
1.583542e-004 
1.588623e-004 
1.592040e-004 
1.595926e-004 
1.599618e-004 
1.601036e-004 
1.601510e-004 
1.602392e-004 
1.601686e-004 
1.598704e-004 
1.595574e-004 
1.592014e-004 
1.586022e-004 
1.578641e-004 
1.571396e-004 
1.562727e-004 
1.551931e-004 
1.540904e-004 
1.529739e-004 
1.516887e-004 
1.503195e-004 
1.490070e-004 
1.476563e-004 
1.462230e-004 
1.448551e-004 
1.435786e-004 
1.423062e-004 
1.411022e-004 
1.400635e-004 
1.391477e-004 
1.383416e-004 
1.377274e-004 
1.373204e-004 
1.370896e-004 
1.370642e-004 
1.372734e-004 
1.377016e-004 
1.383484e-004 
1.392176e-004 
1.402976e-004 
1.415858e-004 
1.430706e-004 
1.447163e-004 
1.465197e-004 
1.484773e-004 
1.505400e-004 
1.526751e-004 
1.549005e-004 
1.571798e-004 
1.594543e-004 
1.617283e-004 
1.640130e-004 
1.662414e-004 
1.683910e-004 
1.704915e-004 
1.725245e-004 
1.744274e-004 
1.762296e-004 
1.779501e-004 
1.795486e-004 
1.809991e-004 
1.823613e-004 
1.836177e-004 
1.847360e-004 
1.857305e-004 
1.866561e-004 
1.874593e-004 
1.881443e-004 
1.887421e-004 
1.892792e-004 
1.896873e-004 
1.900181e-004 
1.902854e-004 
1.904865e-004 
1.905660e-004 
1.906132e-004 
1.906083e-004 
1.905319e-004 
1.903625e-004 
1.901333e-004 
1.898905e-004 
1.000000e+000 
1.000000e+000 
1.360918e-004 
1.360385e-004 
1.360208e-004 
1.360722e-004 
1.361611e-004 
1.362681e-004 
1.364077e-004 
1.366090e-004 
1.368281e-004 
1.370529e-004 
1.373235e-004 
1.376389e-004 
1.379500e-004 
1.382759e-004 
1.386574e-004 
1.390589e-004 
1.394476e-004 
1.398729e-004 
1.403508e-004 
1.408222e-004 
1.412918e-004 
1.418194e-004 
1.423791e-004 
1.429154e-004 
1.434765e-004 
1.441023e-004 
1.447277e-004 
1.453317e-004 
1.459909e-004 
1.466977e-004 
1.473724e-004 
1.480480e-004 
1.487961e-004 
1.495512e-004 
1.502565e-004 
1.509964e-004 
1.517966e-004 
1.525493e-004 
1.532577e-004 
1.540271e-004 
1.548060e-004 
1.554866e-004 
1.561513e-004 
1.568717e-004 
1.575173e-004 
1.580413e-004 
1.585853e-004 
1.591278e-004 
1.595052e-004 
1.597824e-004 
1.600924e-004 
1.602945e-004 
1.602819e-004 
1.602293e-004 
1.601679e-004 
1.598846e-004 
1.594200e-004 
1.589765e-004 
1.584261e-004 
1.576066e-004 
1.567229e-004 
1.558711e-004 
1.548120e-004 
1.535638e-004 
1.523924e-004 
1.511984e-004 
1.497857e-004 
1.483786e-004 
1.471278e-004 
1.457895e-004 
1.443671e-004 
1.431585e-004 
1.420879e-004 
1.409458e-004 
1.399529e-004 
1.392738e-004 
1.386692e-004 
1.381272e-004 
1.379266e-004 
1.379916e-004 
1.381117e-004 
1.384707e-004 
1.392012e-004 
1.400720e-004 
1.410498e-004 
1.423538e-004 
1.438970e-004 
1.454793e-004 
1.472303e-004 
1.492392e-004 
1.512978e-004 
1.533598e-004 
1.555837e-004 
1.578921e-004 
1.601133e-004 
1.623387e-004 
1.646364e-004 
1.668475e-004 
1.689277e-004 
1.710053e-004 
1.730322e-004 
1.748827e-004 
1.766248e-004 
1.783330e-004 
1.798972e-004 
1.812872e-004 
1.826079e-004 
1.838510e-004 
1.849189e-004 
1.858683e-004 
1.867690e-004 
1.875584e-004 
1.881961e-004 
1.887754e-004 
1.893005e-004 
1.897038e-004 
1.900025e-004 
1.902773e-004 
1.904767e-004 
1.905675e-004 
1.905956e-004 
1.906004e-004 
1.904927e-004 
1.903273e-004 
1.901272e-004 
1.898169e-004 
1.000000e+000 
1.000000e+000 
1.358916e-004 
1.358891e-004 
1.358831e-004 
1.359016e-004 
1.360029e-004 
1.361518e-004 
1.362768e-004 
1.364506e-004 
1.366962e-004 
1.369333e-004 
1.371625e-004 
1.374700e-004 
1.378098e-004 
1.381115e-004 
1.384510e-004 
1.388696e-004 
1.392673e-004 
1.396425e-004 
1.401025e-004 
1.406016e-004 
1.410465e-004 
1.415237e-004 
1.420973e-004 
1.426468e-004 
1.431567e-004 
1.437588e-004 
1.444163e-004 
1.450033e-004 
1.456117e-004 
1.463330e-004 
1.470342e-004 
1.476702e-004 
1.483978e-004 
1.491956e-004 
1.499077e-004 
1.506130e-004 
1.514367e-004 
1.522399e-004 
1.529432e-004 
1.537103e-004 
1.545480e-004 
1.552749e-004 
1.559444e-004 
1.567028e-004 
1.574244e-004 
1.579950e-004 
1.585676e-004 
1.591755e-004 
1.596364e-004 
1.599690e-004 
1.603238e-004 
1.606034e-004 
1.606834e-004 
1.606867e-004 
1.606671e-004 
1.604735e-004 
1.601042e-004 
1.596896e-004 
1.591753e-004 
1.584644e-004 
1.576465e-004 
1.567780e-004 
1.557734e-004 
1.546363e-004 
1.534572e-004 
1.522250e-004 
1.509071e-004 
1.495593e-004 
1.482198e-004 
1.468810e-004 
1.455684e-004 
1.443134e-004 
1.431334e-004 
1.420654e-004 
1.411232e-004 
1.403037e-004 
1.396604e-004 
1.392277e-004 
1.389622e-004 
1.388856e-004 
1.390743e-004 
1.394868e-004 
1.400674e-004 
1.408957e-004 
1.419891e-004 
1.432363e-004 
1.446463e-004 
1.463019e-004 
1.481137e-004 
1.499912e-004 
1.520155e-004 
1.541884e-004 
1.563676e-004 
1.585576e-004 
1.608384e-004 
1.631157e-004 
1.652949e-004 
1.674614e-004 
1.696225e-004 
1.716537e-004 
1.735613e-004 
1.754373e-004 
1.772090e-004 
1.788039e-004 
1.803033e-004 
1.817418e-004 
1.830169e-004 
1.841446e-004 
1.852126e-004 
1.861863e-004 
1.869938e-004 
1.877184e-004 
1.883961e-004 
1.889570e-004 
1.893910e-004 
1.897977e-004 
1.901406e-004 
1.903663e-004 
1.905161e-004 
1.906555e-004 
1.906960e-004 
1.906490e-004 
1.905529e-004 
1.903942e-004 
1.900825e-004 
1.897299e-004 
1.000000e+000 
1.000000e+000 
1.356637e-004 
1.356298e-004 
1.356744e-004 
1.357451e-004 
1.358177e-004 
1.359508e-004 
1.361304e-004 
1.363054e-004 
1.364982e-004 
1.367587e-004 
1.370299e-004 
1.372841e-004 
1.375870e-004 
1.379458e-004 
1.382803e-004 
1.386172e-004 
1.390295e-004 
1.394620e-004 
1.398546e-004 
1.402929e-004 
1.408068e-004 
1.412942e-004 
1.417614e-004 
1.423176e-004 
1.429130e-004 
1.434512e-004 
1.440217e-004 
1.446948e-004 
1.453471e-004 
1.459511e-004 
1.466478e-004 
1.474130e-004 
1.481034e-004 
1.487976e-004 
1.496155e-004 
1.504248e-004 
1.511427e-004 
1.519361e-004 
1.528227e-004 
1.536103e-004 
1.543425e-004 
1.551960e-004 
1.560443e-004 
1.567338e-004 
1.574406e-004 
1.582428e-004 
1.589054e-004 
1.594158e-004 
1.600056e-004 
1.605770e-004 
1.609023e-004 
1.611505e-004 
1.614725e-004 
1.616125e-004 
1.614945e-004 
1.613977e-004 
1.612757e-004 
1.608475e-004 
1.602660e-004 
1.597552e-004 
1.590696e-004 
1.580867e-004 
1.571185e-004 
1.561785e-004 
1.549695e-004 
1.536299e-004 
1.524345e-004 
1.511696e-004 
1.496966e-004 
1.483344e-004 
1.471364e-004 
1.458219e-004 
1.445155e-004 
1.434940e-004 
1.425744e-004 
1.416241e-004 
1.409284e-004 
1.405385e-004 
1.402038e-004 
1.400218e-004 
1.402157e-004 
1.406183e-004 
1.411072e-004 
1.418951e-004 
1.429982e-004 
1.441993e-004 
1.455546e-004 
1.472087e-004 
1.490101e-004 
1.508478e-004 
1.528574e-004 
1.550292e-004 
1.571882e-004 
1.593601e-004 
1.616352e-004 
1.638974e-004 
1.660595e-004 
1.682132e-004 
1.703538e-004 
1.723609e-004 
1.742516e-004 
1.760999e-004 
1.778364e-004 
1.794050e-004 
1.808776e-004 
1.822712e-004 
1.835101e-004 
1.846111e-004 
1.856400e-004 
1.865665e-004 
1.873500e-004 
1.880465e-004 
1.886827e-004 
1.892136e-004 
1.896397e-004 
1.900176e-004 
1.903332e-004 
1.905533e-004 
1.907037e-004 
1.908209e-004 
1.908562e-004 
1.907975e-004 
1.906811e-004 
1.905237e-004 
1.902598e-004 
1.898546e-004 
1.000000e+000 
1.000000e+000 
1.354041e-004 
1.353854e-004 
1.354174e-004 
1.355237e-004 
1.356238e-004 
1.357373e-004 
1.359223e-004 
1.361325e-004 
1.363159e-004 
1.365462e-004 
1.368364e-004 
1.371083e-004 
1.373748e-004 
1.377156e-004 
1.380774e-004 
1.384046e-004 
1.387724e-004 
1.392107e-004 
1.396248e-004 
1.400281e-004 
1.405112e-004 
1.410254e-004 
1.414949e-004 
1.420061e-004 
1.425999e-004 
1.431729e-004 
1.437247e-004 
1.443656e-004 
1.450495e-004 
1.456840e-004 
1.463534e-004 
1.471197e-004 
1.478697e-004 
1.485864e-004 
1.493883e-004 
1.502439e-004 
1.510414e-004 
1.518528e-004 
1.527538e-004 
1.536366e-004 
1.544581e-004 
1.553304e-004 
1.562388e-004 
1.570668e-004 
1.578559e-004 
1.586839e-004 
1.594632e-004 
1.601338e-004 
1.607765e-004 
1.613946e-004 
1.618927e-004 
1.622794e-004 
1.626116e-004 
1.628438e-004 
1.629260e-004 
1.628920e-004 
1.627564e-004 
1.624833e-004 
1.620624e-004 
1.615111e-004 
1.608409e-004 
1.600504e-004 
1.591233e-004 
1.580752e-004 
1.569581e-004 
1.557642e-004 
1.544578e-004 
1.531095e-004 
1.517872e-004 
1.504253e-004 
1.490277e-004 
1.477333e-004 
1.465385e-004 
1.453473e-004 
1.442713e-004 
1.434295e-004 
1.427020e-004 
1.420677e-004 
1.417155e-004 
1.416231e-004 
1.416345e-004 
1.418708e-004 
1.424559e-004 
1.432145e-004 
1.440968e-004 
1.452914e-004 
1.467408e-004 
1.482506e-004 
1.499271e-004 
1.518693e-004 
1.538767e-004 
1.558848e-004 
1.580590e-004 
1.603290e-004 
1.625047e-004 
1.646766e-004 
1.669325e-004 
1.690946e-004 
1.711064e-004 
1.731178e-004 
1.750836e-004 
1.768484e-004 
1.784953e-004 
1.801185e-004 
1.815895e-004 
1.828628e-004 
1.840776e-004 
1.852232e-004 
1.861788e-004 
1.870105e-004 
1.878197e-004 
1.885162e-004 
1.890535e-004 
1.895490e-004 
1.900170e-004 
1.903517e-004 
1.905929e-004 
1.908365e-004 
1.910125e-004 
1.910611e-004 
1.910739e-004 
1.910754e-004 
1.909533e-004 
1.907069e-004 
1.904045e-004 
1.900582e-004 
1.000000e+000 
1.000000e+000 
1.350500e-004 
1.351043e-004 
1.351535e-004 
1.352371e-004 
1.353866e-004 
1.355426e-004 
1.356827e-004 
1.358875e-004 
1.361352e-004 
1.363501e-004 
1.365798e-004 
1.368915e-004 
1.371980e-004 
1.374675e-004 
1.378041e-004 
1.382037e-004 
1.385513e-004 
1.389031e-004 
1.393588e-004 
1.398209e-004 
1.402197e-004 
1.406926e-004 
1.412586e-004 
1.417662e-004 
1.422549e-004 
1.428756e-004 
1.435265e-004 
1.440898e-004 
1.447212e-004 
1.454885e-004 
1.461998e-004 
1.468601e-004 
1.476710e-004 
1.485502e-004 
1.493141e-004 
1.501198e-004 
1.510970e-004 
1.520263e-004 
1.528486e-004 
1.538107e-004 
1.548697e-004 
1.557718e-004 
1.566453e-004 
1.576914e-004 
1.586805e-004 
1.594716e-004 
1.603362e-004 
1.612930e-004 
1.620283e-004 
1.626191e-004 
1.633327e-004 
1.639596e-004 
1.642807e-004 
1.645717e-004 
1.649241e-004 
1.649996e-004 
1.648204e-004 
1.647049e-004 
1.644915e-004 
1.639184e-004 
1.632508e-004 
1.626458e-004 
1.617846e-004 
1.606575e-004 
1.596039e-004 
1.585198e-004 
1.571503e-004 
1.557421e-004 
1.544826e-004 
1.531037e-004 
1.515933e-004 
1.502683e-004 
1.490633e-004 
1.477672e-004 
1.465929e-004 
1.457038e-004 
1.448877e-004 
1.441394e-004 
1.437038e-004 
1.435198e-004 
1.434274e-004 
1.435787e-004 
1.440679e-004 
1.447269e-004 
1.455459e-004 
1.466666e-004 
1.480160e-004 
1.494747e-004 
1.511219e-004 
1.529826e-004 
1.549289e-004 
1.569414e-004 
1.590803e-004 
1.612775e-004 
1.634524e-004 
1.656390e-004 
1.678351e-004 
1.699608e-004 
1.720042e-004 
1.739950e-004 
1.758938e-004 
1.776617e-004 
1.793237e-004 
1.808840e-004 
1.823078e-004 
1.835996e-004 
1.847850e-004 
1.858532e-004 
1.867943e-004 
1.876310e-004 
1.883741e-004 
1.890157e-004 
1.895638e-004 
1.900367e-004 
1.904347e-004 
1.907585e-004 
1.910151e-004 
1.912138e-004 
1.913514e-004 
1.914282e-004 
1.914382e-004 
1.913842e-004 
1.912547e-004 
1.910634e-004 
1.907845e-004 
1.903776e-004 
1.000000e+000 
1.000000e+000 
1.346804e-004 
1.347694e-004 
1.348691e-004 
1.349597e-004 
1.350977e-004 
1.352915e-004 
1.354644e-004 
1.356416e-004 
1.358806e-004 
1.361379e-004 
1.363654e-004 
1.366315e-004 
1.369532e-004 
1.372587e-004 
1.375566e-004 
1.379211e-004 
1.383121e-004 
1.386743e-004 
1.390700e-004 
1.395343e-004 
1.399900e-004 
1.404361e-004 
1.409519e-004 
1.415109e-004 
1.420449e-004 
1.426115e-004 
1.432586e-004 
1.439140e-004 
1.445598e-004 
1.452787e-004 
1.460593e-004 
1.468272e-004 
1.476221e-004 
1.485045e-004 
1.494138e-004 
1.503122e-004 
1.512681e-004 
1.522923e-004 
1.533102e-004 
1.543275e-004 
1.554039e-004 
1.565064e-004 
1.575741e-004 
1.586377e-004 
1.597306e-004 
1.607979e-004 
1.617959e-004 
1.627636e-004 
1.637154e-004 
1.645826e-004 
1.653331e-004 
1.660216e-004 
1.666467e-004 
1.671169e-004 
1.674295e-004 
1.676688e-004 
1.677907e-004 
1.676905e-004 
1.674397e-004 
1.671257e-004 
1.666291e-004 
1.658945e-004 
1.650867e-004 
1.642180e-004 
1.631182e-004 
1.618695e-004 
1.606606e-004 
1.593631e-004 
1.578706e-004 
1.564191e-004 
1.550786e-004 
1.536265e-004 
1.521481e-004 
1.509062e-004 
1.497611e-004 
1.485650e-004 
1.475913e-004 
1.469292e-004 
1.463133e-004 
1.458203e-004 
1.457252e-004 
1.458597e-004 
1.460480e-004 
1.465507e-004 
1.474275e-004 
1.483882e-004 
1.494878e-004 
1.509576e-004 
1.526050e-004 
1.542485e-004 
1.561034e-004 
1.581921e-004 
1.602392e-004 
1.622810e-004 
1.644996e-004 
1.667197e-004 
1.687836e-004 
1.708668e-004 
1.729906e-004 
1.749348e-004 
1.767296e-004 
1.785355e-004 
1.802305e-004 
1.816939e-004 
1.830742e-004 
1.844183e-004 
1.855652e-004 
1.865390e-004 
1.874871e-004 
1.883422e-004 
1.890033e-004 
1.895905e-004 
1.901670e-004 
1.906151e-004 
1.909325e-004 
1.912514e-004 
1.915328e-004 
1.916817e-004 
1.917724e-004 
1.918792e-004 
1.918949e-004 
1.917993e-004 
1.916770e-004 
1.915050e-004 
1.911637e-004 
1.907521e-004 
1.000000e+000 
1.000000e+000 
1.343148e-004 
1.343800e-004 
1.345170e-004 
1.346896e-004 
1.348193e-004 
1.349804e-004 
1.352122e-004 
1.354242e-004 
1.356055e-004 
1.358648e-004 
1.361593e-004 
1.363960e-004 
1.366586e-004 
1.370177e-004 
1.373497e-004 
1.376369e-004 
1.380198e-004 
1.384633e-004 
1.388301e-004 
1.392207e-004 
1.397422e-004 
1.402468e-004 
1.406822e-004 
1.412334e-004 
1.418837e-004 
1.424473e-004 
1.430204e-004 
1.437682e-004 
1.445257e-004 
1.451888e-004 
1.459774e-004 
1.469194e-004 
1.477741e-004 
1.486098e-004 
1.496542e-004 
1.507470e-004 
1.517098e-004 
1.527771e-004 
1.540384e-004 
1.552069e-004 
1.562899e-004 
1.575701e-004 
1.589148e-004 
1.600647e-004 
1.612360e-004 
1.625885e-004 
1.638124e-004 
1.648362e-004 
1.659743e-004 
1.671462e-004 
1.680321e-004 
1.688061e-004 
1.696905e-004 
1.703919e-004 
1.707737e-004 
1.711553e-004 
1.715210e-004 
1.715400e-004 
1.713435e-004 
1.711909e-004 
1.708424e-004 
1.701421e-004 
1.693907e-004 
1.686254e-004 
1.675611e-004 
1.663055e-004 
1.651136e-004 
1.638141e-004 
1.622849e-004 
1.607853e-004 
1.593696e-004 
1.578351e-004 
1.562818e-004 
1.549101e-004 
1.536064e-004 
1.523082e-004 
1.512045e-004 
1.503222e-004 
1.495430e-004 
1.489481e-004 
1.486403e-004 
1.485388e-004 
1.486265e-004 
1.489926e-004 
1.496121e-004 
1.504262e-004 
1.514734e-004 
1.527522e-004 
1.542007e-004 
1.558188e-004 
1.576045e-004 
1.594977e-004 
1.614790e-004 
1.635502e-004 
1.656533e-004 
1.677521e-004 
1.698605e-004 
1.719402e-004 
1.739359e-004 
1.758642e-004 
1.777254e-004 
1.794621e-004 
1.810696e-004 
1.825855e-004 
1.839787e-004 
1.852169e-004 
1.863421e-004 
1.873715e-004 
1.882613e-004 
1.890273e-004 
1.897191e-004 
1.903181e-004 
1.907990e-004 
1.912134e-004 
1.915784e-004 
1.918564e-004 
1.920579e-004 
1.922332e-004 
1.923529e-004 
1.923937e-004 
1.923853e-004 
1.923402e-004 
1.922028e-004 
1.919965e-004 
1.917408e-004 
1.913610e-004 
1.000000e+000 
1.000000e+000 
1.339023e-004 
1.340292e-004 
1.341568e-004 
1.343448e-004 
1.345396e-004 
1.347077e-004 
1.349068e-004 
1.351561e-004 
1.353810e-004 
1.355961e-004 
1.358697e-004 
1.361690e-004 
1.364321e-004 
1.367226e-004 
1.370811e-004 
1.374328e-004 
1.377629e-004 
1.381604e-004 
1.386091e-004 
1.390287e-004 
1.394664e-004 
1.399944e-004 
1.405407e-004 
1.410627e-004 
1.416535e-004 
1.423310e-004 
1.429976e-004 
1.436759e-004 
1.444637e-004 
1.453114e-004 
1.461398e-004 
1.470328e-004 
1.480484e-004 
1.490853e-004 
1.501177e-004 
1.512612e-004 
1.525044e-004 
1.537273e-004 
1.549739e-004 
1.563498e-004 
1.577640e-004 
1.591192e-004 
1.605264e-004 
1.620355e-004 
1.634878e-004 
1.648547e-004 
1.662886e-004 
1.677402e-004 
1.690262e-004 
1.702279e-004 
1.714812e-004 
1.726144e-004 
1.735028e-004 
1.743425e-004 
1.751645e-004 
1.757127e-004 
1.760191e-004 
1.763234e-004 
1.764792e-004 
1.762689e-004 
1.759230e-004 
1.755791e-004 
1.749395e-004 
1.739857e-004 
1.730556e-004 
1.720536e-004 
1.706951e-004 
1.692348e-004 
1.679054e-004 
1.663953e-004 
1.646530e-004 
1.630803e-004 
1.616211e-004 
1.599591e-004 
1.583585e-004 
1.570914e-004 
1.558423e-004 
1.545467e-004 
1.536094e-004 
1.529712e-004 
1.523126e-004 
1.518786e-004 
1.519049e-004 
1.520729e-004 
1.523137e-004 
1.529676e-004 
1.539401e-004 
1.549314e-004 
1.561371e-004 
1.577145e-004 
1.593632e-004 
1.610151e-004 
1.629217e-004 
1.649732e-004 
1.669180e-004 
1.689008e-004 
1.710277e-004 
1.730576e-004 
1.749359e-004 
1.768557e-004 
1.787401e-004 
1.804028e-004 
1.819582e-004 
1.835069e-004 
1.848843e-004 
1.860527e-004 
1.871741e-004 
1.882223e-004 
1.890625e-004 
1.897832e-004 
1.904883e-004 
1.910744e-004 
1.914994e-004 
1.918968e-004 
1.922721e-004 
1.925186e-004 
1.926817e-004 
1.928632e-004 
1.929868e-004 
1.929947e-004 
1.929758e-004 
1.929612e-004 
1.928356e-004 
1.925935e-004 
1.923140e-004 
1.919992e-004 
1.000000e+000 
1.000000e+000 
1.334270e-004 
1.336451e-004 
1.338247e-004 
1.339819e-004 
1.342085e-004 
1.344504e-004 
1.346273e-004 
1.348414e-004 
1.351279e-004 
1.353702e-004 
1.355805e-004 
1.358868e-004 
1.362182e-004 
1.364777e-004 
1.367839e-004 
1.371969e-004 
1.375644e-004 
1.378954e-004 
1.383511e-004 
1.388601e-004 
1.392834e-004 
1.397636e-004 
1.403933e-004 
1.409900e-004 
1.415364e-004 
1.422425e-004 
1.430466e-004 
1.437611e-004 
1.445346e-004 
1.455142e-004 
1.464909e-004 
1.474022e-004 
1.484980e-004 
1.497501e-004 
1.509120e-004 
1.521128e-004 
1.535570e-004 
1.550281e-004 
1.563934e-004 
1.579195e-004 
1.596268e-004 
1.612188e-004 
1.627709e-004 
1.645337e-004 
1.663077e-004 
1.678881e-004 
1.695236e-004 
1.712893e-004 
1.728707e-004 
1.742775e-004 
1.757787e-004 
1.772202e-004 
1.783588e-004 
1.794021e-004 
1.804679e-004 
1.812742e-004 
1.817884e-004 
1.822646e-004 
1.826082e-004 
1.825993e-004 
1.824022e-004 
1.821460e-004 
1.816256e-004 
1.808142e-004 
1.799200e-004 
1.788981e-004 
1.776114e-004 
1.761911e-004 
1.747362e-004 
1.731387e-004 
1.714182e-004 
1.697088e-004 
1.679911e-004 
1.662373e-004 
1.645444e-004 
1.629439e-004 
1.614167e-004 
1.600288e-004 
1.588135e-004 
1.577499e-004 
1.568997e-004 
1.562999e-004 
1.558948e-004 
1.557230e-004 
1.558561e-004 
1.562151e-004 
1.567648e-004 
1.576046e-004 
1.586936e-004 
1.599079e-004 
1.613116e-004 
1.629490e-004 
1.646683e-004 
1.664320e-004 
1.683443e-004 
1.703224e-004 
1.722293e-004 
1.741433e-004 
1.761000e-004 
1.779473e-004 
1.796648e-004 
1.813647e-004 
1.829801e-004 
1.844010e-004 
1.857163e-004 
1.869812e-004 
1.880788e-004 
1.890043e-004 
1.898766e-004 
1.906626e-004 
1.912736e-004 
1.917960e-004 
1.922972e-004 
1.926881e-004 
1.929567e-004 
1.932159e-004 
1.934448e-004 
1.935602e-004 
1.936237e-004 
1.937035e-004 
1.937069e-004 
1.936051e-004 
1.934891e-004 
1.933553e-004 
1.930936e-004 
1.927156e-004 
1.000000e+000 
1.000000e+000 
1.329924e-004 
1.332135e-004 
1.334607e-004 
1.336765e-004 
1.338737e-004 
1.341231e-004 
1.343773e-004 
1.345850e-004 
1.348150e-004 
1.351087e-004 