# vtk DataFile Version 2.0
2D-ADE data file 
ASCII
DATASET RECTILINEAR_GRID
DIMENSIONS 128 128 1
X_COORDINATES 128 int
0 1 2 3 4 5 6 7 8 9 10 11 12 13 14 15 16 17 18 19 20 21 22 23 24 25 26 27 28 29 30 31 32 33 34 35 36 37 38 39 40 41 42 43 44 45 46 47 48 49 50 51 52 53 54 55 56 57 58 59 60 61 62 63 64 65 66 67 68 69 70 71 72 73 74 75 76 77 78 79 80 81 82 83 84 85 86 87 88 89 90 91 92 93 94 95 96 97 98 99 100 101 102 103 104 105 106 107 108 109 110 111 112 113 114 115 116 117 118 119 120 121 122 123 124 125 126 127 
Y_COORDINATES 128 int
0 1 2 3 4 5 6 7 8 9 10 11 12 13 14 15 16 17 18 19 20 21 22 23 24 25 26 27 28 29 30 31 32 33 34 35 36 37 38 39 40 41 42 43 44 45 46 47 48 49 50 51 52 53 54 55 56 57 58 59 60 61 62 63 64 65 66 67 68 69 70 71 72 73 74 75 76 77 78 79 80 81 82 83 84 85 86 87 88 89 90 91 92 93 94 95 96 97 98 99 100 101 102 103 104 105 106 107 108 109 110 111 112 113 114 115 116 117 118 119 120 121 122 123 124 125 126 127 
Z_COORDINATES 1 int
0
POINT_DATA 16384 
SCALARS density double 1
LOOKUP_TABLE default
1.000000e+000 
1.000000e+000 
1.000000e+000 
1.000000e+000 
1.000000e+000 
1.000000e+000 
1.000000e+000 
1.000000e+000 
1.000000e+000 
1.000000e+000 
1.000000e+000 
1.000000e+000 
1.000000e+000 
1.000000e+000 
1.000000e+000 
1.000000e+000 
1.000000e+000 
1.000000e+000 
1.000000e+000 
1.000000e+000 
1.000000e+000 
1.000000e+000 
1.000000e+000 
1.000000e+000 
1.000000e+000 
1.000000e+000 
1.000000e+000 
1.000000e+000 
1.000000e+000 
1.000000e+000 
1.000000e+000 
1.000000e+000 
1.000000e+000 
1.000000e+000 
1.000000e+000 
1.000000e+000 
1.000000e+000 
1.000000e+000 
1.000000e+000 
1.000000e+000 
1.000000e+000 
1.000000e+000 
1.000000e+000 
1.000000e+000 
1.000000e+000 
1.000000e+000 
1.000000e+000 
1.000000e+000 
1.000000e+000 
1.000000e+000 
1.000000e+000 
1.000000e+000 
1.000000e+000 
1.000000e+000 
1.000000e+000 
1.000000e+000 
1.000000e+000 
1.000000e+000 
1.000000e+000 
1.000000e+000 
1.000000e+000 
1.000000e+000 
1.000000e+000 
1.000000e+000 
1.000000e+000 
1.000000e+000 
1.000000e+000 
1.000000e+000 
1.000000e+000 
1.000000e+000 
1.000000e+000 
1.000000e+000 
1.000000e+000 
1.000000e+000 
1.000000e+000 
1.000000e+000 
1.000000e+000 
1.000000e+000 
1.000000e+000 
1.000000e+000 
1.000000e+000 
1.000000e+000 
1.000000e+000 
1.000000e+000 
1.000000e+000 
1.000000e+000 
1.000000e+000 
1.000000e+000 
1.000000e+000 
1.000000e+000 
1.000000e+000 
1.000000e+000 
1.000000e+000 
1.000000e+000 
1.000000e+000 
1.000000e+000 
1.000000e+000 
1.000000e+000 
1.000000e+000 
1.000000e+000 
1.000000e+000 
1.000000e+000 
1.000000e+000 
1.000000e+000 
1.000000e+000 
1.000000e+000 
1.000000e+000 
1.000000e+000 
1.000000e+000 
1.000000e+000 
1.000000e+000 
1.000000e+000 
1.000000e+000 
1.000000e+000 
1.000000e+000 
1.000000e+000 
1.000000e+000 
1.000000e+000 
1.000000e+000 
1.000000e+000 
1.000000e+000 
1.000000e+000 
1.000000e+000 
1.000000e+000 
1.000000e+000 
1.000000e+000 
1.000000e+000 
1.000000e+000 
1.000000e+000 
1.168493e-004 
1.167528e-004 
1.166151e-004 
1.165342e-004 
1.164870e-004 
1.166400e-004 
1.168798e-004 
1.172419e-004 
1.176685e-004 
1.182648e-004 
1.189161e-004 
1.196334e-004 
1.204284e-004 
1.213332e-004 
1.222493e-004 
1.232095e-004 
1.242634e-004 
1.253713e-004 
1.264766e-004 
1.276506e-004 
1.289268e-004 
1.302153e-004 
1.315283e-004 
1.329524e-004 
1.344619e-004 
1.359630e-004 
1.375438e-004 
1.392555e-004 
1.410073e-004 
1.427587e-004 
1.446432e-004 
1.466273e-004 
1.485960e-004 
1.505989e-004 
1.527494e-004 
1.549148e-004 
1.570262e-004 
1.592113e-004 
1.614878e-004 
1.636656e-004 
1.657843e-004 
1.679788e-004 
1.701310e-004 
1.720858e-004 
1.739976e-004 
1.759089e-004 
1.776017e-004 
1.790525e-004 
1.804582e-004 
1.817013e-004 
1.825786e-004 
1.832321e-004 
1.837761e-004 
1.839627e-004 
1.837384e-004 
1.833367e-004 
1.826946e-004 
1.815695e-004 
1.801157e-004 
1.785071e-004 
1.765264e-004 
1.741000e-004 
1.715082e-004 
1.687454e-004 
1.655903e-004 
1.622021e-004 
1.588106e-004 
1.552486e-004 
1.514608e-004 
1.477379e-004 
1.441259e-004 
1.404452e-004 
1.368522e-004 
1.335776e-004 
1.305009e-004 
1.275796e-004 
1.250607e-004 
1.229907e-004 
1.212184e-004 
1.198541e-004 
1.190597e-004 
1.187266e-004 
1.187872e-004 
1.193934e-004 
1.205388e-004 
1.220785e-004 
1.240339e-004 
1.264811e-004 
1.292911e-004 
1.323755e-004 
1.357769e-004 
1.394660e-004 
1.432895e-004 
1.472362e-004 
1.513099e-004 
1.554263e-004 
1.594779e-004 
1.635043e-004 
1.674568e-004 
1.712658e-004 
1.748847e-004 
1.783710e-004 
1.816411e-004 
1.846862e-004 
1.874928e-004 
1.901199e-004 
1.924718e-004 
1.946111e-004 
1.965146e-004 
1.982468e-004 
1.997095e-004 
2.010226e-004 
2.021184e-004 
2.030847e-004 
2.038095e-004 
2.044529e-004 
2.048862e-004 
2.052365e-004 
2.053604e-004 
2.054523e-004 
2.053382e-004 
2.051853e-004 
2.048417e-004 
2.045384e-004 
2.042631e-004 
2.041371e-004 
1.000000e+000 
1.000000e+000 
1.169356e-004 
1.168359e-004 
1.167235e-004 
1.167454e-004 
1.167135e-004 
1.168815e-004 
1.170884e-004 
1.174815e-004 
1.178680e-004 
1.184311e-004 
1.190448e-004 
1.197539e-004 
1.204868e-004 
1.213478e-004 
1.222394e-004 
1.231683e-004 
1.241597e-004 
1.252344e-004 
1.263229e-004 
1.274482e-004 
1.286709e-004 
1.299373e-004 
1.312264e-004 
1.325866e-004 
1.340529e-004 
1.355334e-004 
1.370709e-004 
1.387082e-004 
1.404264e-004 
1.421483e-004 
1.439660e-004 
1.458748e-004 
1.478201e-004 
1.497782e-004 
1.518431e-004 
1.539478e-004 
1.560473e-004 
1.581676e-004 
1.603554e-004 
1.625072e-004 
1.646208e-004 
1.667311e-004 
1.688214e-004 
1.707995e-004 
1.726991e-004 
1.745228e-004 
1.762195e-004 
1.777370e-004 
1.791085e-004 
1.803020e-004 
1.812760e-004 
1.820058e-004 
1.825012e-004 
1.827327e-004 
1.826830e-004 
1.823247e-004 
1.816671e-004 
1.807157e-004 
1.794501e-004 
1.778426e-004 
1.759502e-004 
1.737946e-004 
1.713276e-004 
1.685747e-004 
1.656475e-004 
1.625269e-004 
1.591711e-004 
1.557080e-004 
1.522344e-004 
1.486685e-004 
1.450584e-004 
1.415973e-004 
1.382743e-004 
1.350146e-004 
1.319928e-004 
1.293390e-004 
1.269283e-004 
1.247971e-004 
1.231577e-004 
1.219723e-004 
1.211083e-004 
1.207303e-004 
1.209297e-004 
1.215323e-004 
1.225141e-004 
1.240560e-004 
1.260492e-004 
1.283285e-004 
1.309820e-004 
1.340715e-004 
1.373621e-004 
1.408198e-004 
1.445397e-004 
1.484354e-004 
1.522931e-004 
1.562173e-004 
1.602035e-004 
1.641079e-004 
1.678315e-004 
1.715368e-004 
1.750924e-004 
1.784232e-004 
1.815286e-004 
1.845496e-004 
1.872739e-004 
1.897710e-004 
1.920481e-004 
1.942052e-004 
1.960114e-004 
1.976823e-004 
1.991368e-004 
2.004767e-004 
2.014789e-004 
2.024641e-004 
2.032060e-004 
2.038765e-004 
2.042417e-004 
2.046833e-004 
2.048289e-004 
2.049694e-004 
2.048422e-004 
2.048436e-004 
2.045511e-004 
2.043423e-004 
2.041416e-004 
2.040470e-004 
1.000000e+000 
1.000000e+000 
1.170629e-004 
1.169624e-004 
1.168405e-004 
1.168005e-004 
1.168764e-004 
1.170290e-004 
1.172309e-004 
1.175779e-004 
1.180219e-004 
1.185191e-004 
1.190871e-004 
1.197872e-004 
1.205266e-004 
1.212905e-004 
1.221479e-004 
1.230947e-004 
1.240330e-004 
1.250132e-004 
1.261076e-004 
1.272385e-004 
1.283555e-004 
1.295679e-004 
1.308898e-004 
1.322021e-004 
1.335445e-004 
1.350313e-004 
1.365833e-004 
1.381090e-004 
1.397364e-004 
1.415090e-004 
1.432780e-004 
1.450468e-004 
1.469733e-004 
1.489789e-004 
1.509225e-004 
1.529233e-004 
1.550745e-004 
1.571889e-004 
1.592243e-004 
1.613631e-004 
1.635549e-004 
1.655903e-004 
1.675724e-004 
1.696362e-004 
1.715839e-004 
1.733028e-004 
1.749989e-004 
1.766553e-004 
1.780190e-004 
1.791521e-004 
1.802417e-004 
1.810975e-004 
1.815583e-004 
1.818333e-004 
1.819631e-004 
1.816816e-004 
1.810260e-004 
1.802215e-004 
1.791264e-004 
1.775664e-004 
1.757561e-004 
1.737912e-004 
1.714486e-004 
1.687616e-004 
1.659799e-004 
1.630267e-004 
1.597658e-004 
1.564066e-004 
1.530813e-004 
1.496373e-004 
1.461220e-004 
1.427687e-004 
1.395520e-004 
1.363882e-004 
1.334523e-004 
1.308613e-004 
1.285196e-004 
1.264667e-004 
1.248613e-004 
1.236850e-004 
1.228750e-004 
1.225257e-004 
1.226849e-004 
1.232748e-004 
1.242853e-004 
1.257696e-004 
1.276786e-004 
1.299433e-004 
1.325619e-004 
1.355175e-004 
1.387289e-004 
1.421508e-004 
1.457566e-004 
1.494962e-004 
1.533003e-004 
1.571373e-004 
1.609655e-004 
1.647445e-004 
1.684260e-004 
1.719921e-004 
1.754080e-004 
1.786608e-004 
1.817174e-004 
1.845806e-004 
1.872315e-004 
1.896804e-004 
1.919021e-004 
1.939247e-004 
1.957355e-004 
1.973584e-004 
1.987712e-004 
2.000233e-004 
2.010912e-004 
2.020081e-004 
2.027506e-004 
2.033798e-004 
2.038490e-004 
2.042031e-004 
2.044198e-004 
2.045551e-004 
2.045522e-004 
2.044759e-004 
2.043407e-004 
2.041484e-004 
2.039267e-004 
2.037517e-004 
1.000000e+000 
1.000000e+000 
1.171459e-004 
1.169439e-004 
1.168734e-004 
1.168348e-004 
1.169029e-004 
1.170465e-004 
1.172941e-004 
1.176007e-004 
1.180344e-004 
1.185337e-004 
1.190981e-004 
1.197333e-004 
1.204605e-004 
1.212226e-004 
1.220319e-004 
1.229150e-004 
1.238515e-004 
1.248116e-004 
1.258278e-004 
1.269170e-004 
1.280378e-004 
1.291987e-004 
1.304344e-004 
1.317368e-004 
1.330698e-004 
1.344716e-004 
1.359565e-004 
1.374981e-004 
1.390823e-004 
1.407539e-004 
1.424985e-004 
1.442888e-004 
1.461306e-004 
1.480548e-004 
1.500268e-004 
1.520279e-004 
1.540702e-004 
1.561651e-004 
1.582688e-004 
1.603668e-004 
1.624702e-004 
1.645757e-004 
1.666291e-004 
1.686167e-004 
1.705549e-004 
1.724227e-004 
1.741492e-004 
1.757363e-004 
1.772107e-004 
1.785149e-004 
1.795747e-004 
1.804365e-004 
1.811154e-004 
1.815058e-004 
1.815791e-004 
1.814326e-004 
1.810232e-004 
1.802318e-004 
1.791326e-004 
1.778235e-004 
1.761787e-004 
1.741547e-004 
1.719296e-004 
1.695137e-004 
1.667537e-004 
1.637646e-004 
1.607326e-004 
1.575390e-004 
1.541295e-004 
1.507569e-004 
1.474789e-004 
1.441242e-004 
1.408300e-004 
1.378368e-004 
1.350227e-004 
1.323178e-004 
1.299943e-004 
1.281107e-004 
1.264688e-004 
1.251843e-004 
1.244773e-004 
1.241910e-004 
1.242206e-004 
1.247842e-004 
1.258927e-004 
1.273099e-004 
1.290980e-004 
1.313997e-004 
1.340304e-004 
1.368460e-004 
1.399973e-004 
1.434461e-004 
1.469653e-004 
1.505658e-004 
1.543540e-004 
1.581522e-004 
1.618405e-004 
1.655207e-004 
1.691866e-004 
1.726452e-004 
1.759288e-004 
1.791220e-004 
1.821358e-004 
1.848612e-004 
1.874283e-004 
1.898361e-004 
1.919931e-004 
1.938937e-004 
1.956793e-004 
1.972607e-004 
1.986136e-004 
1.997865e-004 
2.008770e-004 
2.017465e-004 
2.024635e-004 
2.030601e-004 
2.035864e-004 
2.038952e-004 
2.041379e-004 
2.042819e-004 
2.043602e-004 
2.042392e-004 
2.041382e-004 
2.039759e-004 
2.037606e-004 
2.034251e-004 
1.000000e+000 
1.000000e+000 
1.171963e-004 
1.169566e-004 
1.168076e-004 
1.167905e-004 
1.168413e-004 
1.169865e-004 
1.172613e-004 
1.175788e-004 
1.179616e-004 
1.184627e-004 
1.190492e-004 
1.196424e-004 
1.203140e-004 
1.210928e-004 
1.218877e-004 
1.226893e-004 
1.235977e-004 
1.245742e-004 
1.255253e-004 
1.265327e-004 
1.276631e-004 
1.288090e-004 
1.299428e-004 
1.312024e-004 
1.325617e-004 
1.338965e-004 
1.352834e-004 
1.368363e-004 
1.384252e-004 
1.399907e-004 
1.416879e-004 
1.435251e-004 
1.453255e-004 
1.471518e-004 
1.491511e-004 
1.511968e-004 
1.531648e-004 
1.552260e-004 
1.574179e-004 
1.595311e-004 
1.615760e-004 
1.637403e-004 
1.659017e-004 
1.678818e-004 
1.698301e-004 
1.718309e-004 
1.736483e-004 
1.752427e-004 
1.768137e-004 
1.782742e-004 
1.794024e-004 
1.803225e-004 
1.811535e-004 
1.816794e-004 
1.818214e-004 
1.817842e-004 
1.815273e-004 
1.808426e-004 
1.798307e-004 
1.786413e-004 
1.771160e-004 
1.751875e-004 
1.730507e-004 
1.707216e-004 
1.680562e-004 
1.651540e-004 
1.621697e-004 
1.590275e-004 
1.557076e-004 
1.523794e-004 
1.490920e-004 
1.457891e-004 
1.425647e-004 
1.395384e-004 
1.366981e-004 
1.340651e-004 
1.317437e-004 
1.297699e-004 
1.281438e-004 
1.269152e-004 
1.261214e-004 
1.257631e-004 
1.258565e-004 
1.264012e-004 
1.273828e-004 
1.288034e-004 
1.306410e-004 
1.328378e-004 
1.353811e-004 
1.382527e-004 
1.413728e-004 
1.446840e-004 
1.481887e-004 
1.518204e-004 
1.554900e-004 
1.591837e-004 
1.628937e-004 
1.665234e-004 
1.700350e-004 
1.734479e-004 
1.767274e-004 
1.797956e-004 
1.826828e-004 
1.854018e-004 
1.879066e-004 
1.901704e-004 
1.922623e-004 
1.941608e-004 
1.958396e-004 
1.973181e-004 
1.986627e-004 
1.998165e-004 
2.007971e-004 
2.016378e-004 
2.023766e-004 
2.029396e-004 
2.033946e-004 
2.037510e-004 
2.040166e-004 
2.041253e-004 
2.041850e-004 
2.041665e-004 
2.040579e-004 
2.038225e-004 
2.034848e-004 
2.031277e-004 
1.000000e+000 
1.000000e+000 
1.170402e-004 
1.167853e-004 
1.166531e-004 
1.166525e-004 
1.167164e-004 
1.168635e-004 
1.170992e-004 
1.174513e-004 
1.178586e-004 
1.183243e-004 
1.188772e-004 
1.195065e-004 
1.201608e-004 
1.208692e-004 
1.216543e-004 
1.224770e-004 
1.233160e-004 
1.242215e-004 
1.251923e-004 
1.261817e-004 
1.272076e-004 
1.283195e-004 
1.294856e-004 
1.306734e-004 
1.319335e-004 
1.332903e-004 
1.346890e-004 
1.361283e-004 
1.376720e-004 
1.393040e-004 
1.409646e-004 
1.426912e-004 
1.445350e-004 
1.464353e-004 
1.483513e-004 
1.503540e-004 
1.524534e-004 
1.545534e-004 
1.566580e-004 
1.588492e-004 
1.610692e-004 
1.632171e-004 
1.653585e-004 
1.675433e-004 
1.696395e-004 
1.715930e-004 
1.735204e-004 
1.753858e-004 
1.770201e-004 
1.784692e-004 
1.798447e-004 
1.809968e-004 
1.818061e-004 
1.824278e-004 
1.828817e-004 
1.829472e-004 
1.826512e-004 
1.821873e-004 
1.814259e-004 
1.801985e-004 
1.787070e-004 
1.770532e-004 
1.750022e-004 
1.725754e-004 
1.700521e-004 
1.673489e-004 
1.642813e-004 
1.610926e-004 
1.579594e-004 
1.546592e-004 
1.512186e-004 
1.479667e-004 
1.448559e-004 
1.417026e-004 
1.387596e-004 
1.362209e-004 
1.338713e-004 
1.317273e-004 
1.300935e-004 
1.289100e-004 
1.279851e-004 
1.275213e-004 
1.276551e-004 
1.281574e-004 
1.290039e-004 
1.304072e-004 
1.322634e-004 
1.343670e-004 
1.368360e-004 
1.397293e-004 
1.428166e-004 
1.460387e-004 
1.495227e-004 
1.531566e-004 
1.567538e-004 
1.603847e-004 
1.640820e-004 
1.676683e-004 
1.710915e-004 
1.744573e-004 
1.776965e-004 
1.806847e-004 
1.834848e-004 
1.861563e-004 
1.885888e-004 
1.907634e-004 
1.927794e-004 
1.946270e-004 
1.962214e-004 
1.976289e-004 
1.989142e-004 
2.000253e-004 
2.009345e-004 
2.017386e-004 
2.024394e-004 
2.029852e-004 
2.033959e-004 
2.037526e-004 
2.040033e-004 
2.041300e-004 
2.041669e-004 
2.041550e-004 
2.039983e-004 
2.037790e-004 
2.034882e-004 
2.030276e-004 
1.000000e+000 
1.000000e+000 
1.168014e-004 
1.166059e-004 
1.164406e-004 
1.163865e-004 
1.164774e-004 
1.166738e-004 
1.168955e-004 
1.172305e-004 
1.176693e-004 
1.181431e-004 
1.186548e-004 
1.192820e-004 
1.199547e-004 
1.206225e-004 
1.213601e-004 
1.221919e-004 
1.230132e-004 
1.238471e-004 
1.247910e-004 
1.257861e-004 
1.267539e-004 
1.277994e-004 
1.289684e-004 
1.301402e-004 
1.313235e-004 
1.326527e-004 
1.340722e-004 
1.354705e-004 
1.369583e-004 
1.386145e-004 
1.402962e-004 
1.419797e-004 
1.438254e-004 
1.457925e-004 
1.477274e-004 
1.497251e-004 
1.518982e-004 
1.540909e-004 
1.562319e-004 
1.584865e-004 
1.608390e-004 
1.630972e-004 
1.653180e-004 
1.676340e-004 
1.698954e-004 
1.719802e-004 
1.740350e-004 
1.760701e-004 
1.778829e-004 
1.794839e-004 
1.810087e-004 
1.823369e-004 
1.833297e-004 
1.841011e-004 
1.846881e-004 
1.849243e-004 
1.848015e-004 
1.844422e-004 
1.837824e-004 
1.827225e-004 
1.813528e-004 
1.797289e-004 
1.777691e-004 
1.754874e-004 
1.729827e-004 
1.702551e-004 
1.672918e-004 
1.641678e-004 
1.609383e-004 
1.576221e-004 
1.542747e-004 
1.509497e-004 
1.476917e-004 
1.445741e-004 
1.416387e-004 
1.389050e-004 
1.364607e-004 
1.343706e-004 
1.326078e-004 
1.312161e-004 
1.302986e-004 
1.298230e-004 
1.297381e-004 
1.301383e-004 
1.310423e-004 
1.323264e-004 
1.339960e-004 
1.361281e-004 
1.386083e-004 
1.413250e-004 
1.443462e-004 
1.476453e-004 
1.510469e-004 
1.545375e-004 
1.581732e-004 
1.618253e-004 
1.653777e-004 
1.689026e-004 
1.723808e-004 
1.756683e-004 
1.787658e-004 
1.817557e-004 
1.845492e-004 
1.870747e-004 
1.894162e-004 
1.916038e-004 
1.935341e-004 
1.952357e-004 
1.967989e-004 
1.981918e-004 
1.993503e-004 
2.003715e-004 
2.012904e-004 
2.020465e-004 
2.026360e-004 
2.031681e-004 
2.036027e-004 
2.038979e-004 
2.040924e-004 
2.042584e-004 
2.042991e-004 
2.042419e-004 
2.041024e-004 
2.038657e-004 
2.034297e-004 
2.029376e-004 
1.000000e+000 
1.000000e+000 
1.164220e-004 
1.161788e-004 
1.160953e-004 
1.160966e-004 
1.161603e-004 
1.163491e-004 
1.166301e-004 
1.169626e-004 
1.173663e-004 
1.178756e-004 
1.184202e-004 
1.189886e-004 
1.196366e-004 
1.203528e-004 
1.210626e-004 
1.218072e-004 
1.226405e-004 
1.235029e-004 
1.243553e-004 
1.252854e-004 
1.263045e-004 
1.273266e-004 
1.283775e-004 
1.295536e-004 
1.307996e-004 
1.320463e-004 
1.333867e-004 
1.348734e-004 
1.363946e-004 
1.379450e-004 
1.396513e-004 
1.414800e-004 
1.433087e-004 
1.452202e-004 
1.473128e-004 
1.494578e-004 
1.515870e-004 
1.538522e-004 
1.562540e-004 
1.586085e-004 
1.609561e-004 
1.634491e-004 
1.659513e-004 
1.683094e-004 
1.706798e-004 
1.731181e-004 
1.753814e-004 
1.774440e-004 
1.795127e-004 
1.814736e-004 
1.830868e-004 
1.845012e-004 
1.858492e-004 
1.868632e-004 
1.874521e-004 
1.878800e-004 
1.880925e-004 
1.877994e-004 
1.871438e-004 
1.863485e-004 
1.851677e-004 
1.834764e-004 
1.815915e-004 
1.795373e-004 
1.770241e-004 
1.742016e-004 
1.713641e-004 
1.683167e-004 
1.649396e-004 
1.615773e-004 
1.583103e-004 
1.548837e-004 
1.514521e-004 
1.483231e-004 
1.453417e-004 
1.424068e-004 
1.398349e-004 
1.377004e-004 
1.357789e-004 
1.341962e-004 
1.331903e-004 
1.326060e-004 
1.323401e-004 
1.326124e-004 
1.334319e-004 
1.345840e-004 
1.361255e-004 
1.381790e-004 
1.405741e-004 
1.431929e-004 
1.461453e-004 
1.493855e-004 
1.527218e-004 
1.561594e-004 
1.597494e-004 
1.633491e-004 
1.668595e-004 
1.703444e-004 
1.737694e-004 
1.770068e-004 
1.800651e-004 
1.829959e-004 
1.857223e-004 
1.881953e-004 
1.904795e-004 
1.925847e-004 
1.944460e-004 
1.960898e-004 
1.975773e-004 
1.988855e-004 
1.999898e-004 
2.009512e-004 
2.017954e-004 
2.024923e-004 
2.030522e-004 
2.035314e-004 
2.039171e-004 
2.041910e-004 
2.043772e-004 
2.045105e-004 
2.045387e-004 
2.044583e-004 
2.042947e-004 
2.040670e-004 
2.036991e-004 
2.031371e-004 
1.000000e+000 
1.000000e+000 
1.159759e-004 
1.157580e-004 
1.156422e-004 
1.156752e-004 
1.157714e-004 
1.159539e-004 
1.162595e-004 
1.166323e-004 
1.170283e-004 
1.175192e-004 
1.180932e-004 
1.186728e-004 
1.192812e-004 
1.199844e-004 
1.207133e-004 
1.214284e-004 
1.222116e-004 
1.230746e-004 
1.239245e-004 
1.247999e-004 
1.257869e-004 
1.268231e-004 
1.278522e-004 
1.289805e-004 
1.302327e-004 
1.315047e-004 
1.328236e-004 
1.343031e-004 
1.358781e-004 
1.374706e-004 
1.391861e-004 
1.410729e-004 
1.430069e-004 
1.449926e-004 
1.471524e-004 
1.494325e-004 
1.517212e-004 
1.541053e-004 
1.566452e-004 
1.592119e-004 
1.617667e-004 
1.644199e-004 
1.671291e-004 
1.697626e-004 
1.723608e-004 
1.749827e-004 
1.775119e-004 
1.798778e-004 
1.821497e-004 
1.843045e-004 
1.862252e-004 
1.879106e-004 
1.893997e-004 
1.906244e-004 
1.915233e-004 
1.921208e-004 
1.924151e-004 
1.923609e-004 
1.919454e-004 
1.911791e-004 
1.900695e-004 
1.886204e-004 
1.868195e-004 
1.846849e-004 
1.822819e-004 
1.796186e-004 
1.766699e-004 
1.735253e-004 
1.702797e-004 
1.668885e-004 
1.633767e-004 
1.599171e-004 
1.565369e-004 
1.531630e-004 
1.499407e-004 
1.470250e-004 
1.443200e-004 
1.418308e-004 
1.397807e-004 
1.381689e-004 
1.368540e-004 
1.359808e-004 
1.356888e-004 
1.358023e-004 
1.362786e-004 
1.373120e-004 
1.388312e-004 
1.406282e-004 
1.428049e-004 
1.454377e-004 
1.482954e-004 
1.512977e-004 
1.545880e-004 
1.580566e-004 
1.614887e-004 
1.649588e-004 
1.685208e-004 
1.719672e-004 
1.752325e-004 
1.784489e-004 
1.815448e-004 
1.843587e-004 
1.869744e-004 
1.894717e-004 
1.917160e-004 
1.936733e-004 
1.954844e-004 
1.971336e-004 
1.985118e-004 
1.996988e-004 
2.007959e-004 
2.017184e-004 
2.024363e-004 
2.030736e-004 
2.036439e-004 
2.040530e-004 
2.043503e-004 
2.046297e-004 
2.048209e-004 
2.048747e-004 
2.048794e-004 
2.048541e-004 
2.046822e-004 
2.043599e-004 
2.039321e-004 
2.034381e-004 
1.000000e+000 
1.000000e+000 
1.153326e-004 
1.151708e-004 
1.150982e-004 
1.151417e-004 
1.152969e-004 
1.155172e-004 
1.157902e-004 
1.161844e-004 
1.166493e-004 
1.171224e-004 
1.176536e-004 
1.182852e-004 
1.189199e-004 
1.195485e-004 
1.202643e-004 
1.210418e-004 
1.217817e-004 
1.225594e-004 
1.234531e-004 
1.243641e-004 
1.252530e-004 
1.262596e-004 
1.273831e-004 
1.284932e-004 
1.296541e-004 
1.310015e-004 
1.324285e-004 
1.338495e-004 
1.354241e-004 
1.372004e-004 
1.389997e-004 
1.408507e-004 
1.429393e-004 
1.451723e-004 
1.473862e-004 
1.497408e-004 
1.523415e-004 
1.549689e-004 
1.575738e-004 
1.603851e-004 
1.633385e-004 
1.661814e-004 
1.690328e-004 
1.720670e-004 
1.750380e-004 
1.777972e-004 
1.805932e-004 
1.834199e-004 
1.859488e-004 
1.882393e-004 
1.905354e-004 
1.926090e-004 
1.942251e-004 
1.956415e-004 
1.969345e-004 
1.977528e-004 
1.981060e-004 
1.983036e-004 
1.981785e-004 
1.974625e-004 
1.964187e-004 
1.952077e-004 
1.935135e-004 
1.913318e-004 
1.890133e-004 
1.864675e-004 
1.834534e-004 
1.802369e-004 
1.770270e-004 
1.735781e-004 
1.699046e-004 
1.663520e-004 
1.628815e-004 
1.593139e-004 
1.558957e-004 
1.528172e-004 
1.498964e-004 
1.471636e-004 
1.448886e-004 
1.430299e-004 
1.414574e-004 
1.403444e-004 
1.397906e-004 
1.396406e-004 
1.398998e-004 
1.407025e-004 
1.419653e-004 
1.435716e-004 
1.455870e-004 
1.480058e-004 
1.506859e-004 
1.535927e-004 
1.567486e-004 
1.600548e-004 
1.634160e-004 
1.668353e-004 
1.702732e-004 
1.736340e-004 
1.768905e-004 
1.800418e-004 
1.830320e-004 
1.858208e-004 
1.884199e-004 
1.908191e-004 
1.929884e-004 
1.949377e-004 
1.966857e-004 
1.982254e-004 
1.995618e-004 
2.007228e-004 
2.017195e-004 
2.025581e-004 
2.032597e-004 
2.038444e-004 
2.043174e-004 
2.046937e-004 
2.049849e-004 
2.051997e-004 
2.053385e-004 
2.054104e-004 
2.054026e-004 
2.053135e-004 
2.051285e-004 
2.048733e-004 
2.044990e-004 
2.039399e-004 
1.000000e+000 
1.000000e+000 
1.146096e-004 
1.145177e-004 
1.144845e-004 
1.145287e-004 
1.146964e-004 
1.149813e-004 
1.152927e-004 
1.156698e-004 
1.161485e-004 
1.166741e-004 
1.172010e-004 
1.177997e-004 
1.184619e-004 
1.191181e-004 
1.197896e-004 
1.205433e-004 
1.213229e-004 
1.220942e-004 
1.229314e-004 
1.238552e-004 
1.247907e-004 
1.257682e-004 
1.268662e-004 
1.280447e-004 
1.292571e-004 
1.305859e-004 
1.320628e-004 
1.336148e-004 
1.352542e-004 
1.370690e-004 
1.390267e-004 
1.410673e-004 
1.432527e-004 
1.456277e-004 
1.481173e-004 
1.507035e-004 
1.534556e-004 
1.563568e-004 
1.593277e-004 
1.623841e-004 
1.655633e-004 
1.688056e-004 
1.720483e-004 
1.753124e-004 
1.785980e-004 
1.818306e-004 
1.849588e-004 
1.879962e-004 
1.909276e-004 
1.936712e-004 
1.961780e-004 
1.984757e-004 
2.005450e-004 
2.022833e-004 
2.036686e-004 
2.047686e-004 
2.055331e-004 
2.058470e-004 
2.057704e-004 
2.053903e-004 
2.045875e-004 
2.033020e-004 
2.017038e-004 
1.998169e-004 
1.974762e-004 
1.947732e-004 
1.919182e-004 
1.888002e-004 
1.853272e-004 
1.817622e-004 
1.782044e-004 
1.744524e-004 
1.706203e-004 
1.670073e-004 
1.635013e-004 
1.599823e-004 
1.567610e-004 
1.539571e-004 
1.513278e-004 
1.489817e-004 
1.472216e-004 
1.458921e-004 
1.448363e-004 
1.443353e-004 
1.444496e-004 
1.448874e-004 
1.457131e-004 
1.471486e-004 
1.489780e-004 
1.510129e-004 
1.534554e-004 
1.562906e-004 
1.592176e-004 
1.622602e-004 
1.655639e-004 
1.689146e-004 
1.721420e-004 
1.753997e-004 
1.786698e-004 
1.817161e-004 
1.845656e-004 
1.873542e-004 
1.899409e-004 
1.922130e-004 
1.943166e-004 
1.962833e-004 
1.979593e-004 
1.993847e-004 
2.007023e-004 
2.018460e-004 
2.027349e-004 
2.034993e-004 
2.041982e-004 
2.047279e-004 
2.051025e-004 
2.054543e-004 
2.057432e-004 
2.058918e-004 
2.059756e-004 
2.060627e-004 
2.060473e-004 
2.059222e-004 
2.057523e-004 
2.055030e-004 
2.050530e-004 
2.045233e-004 
1.000000e+000 
1.000000e+000 
1.137826e-004 
1.136778e-004 
1.137291e-004 
1.138743e-004 
1.140426e-004 
1.143199e-004 
1.147091e-004 
1.151244e-004 
1.155633e-004 
1.161172e-004 
1.167133e-004 
1.172804e-004 
1.179039e-004 
1.186258e-004 
1.193189e-004 
1.199977e-004 
1.207898e-004 
1.216407e-004 
1.224390e-004 
1.233096e-004 
1.243353e-004 
1.253731e-004 
1.264089e-004 
1.276301e-004 
1.289991e-004 
1.303578e-004 
1.318304e-004 
1.335645e-004 
1.353911e-004 
1.372416e-004 
1.393393e-004 
1.416896e-004 
1.440645e-004 
1.465549e-004 
1.493690e-004 
1.523315e-004 
1.552787e-004 
1.584430e-004 
1.618842e-004 
1.653074e-004 
1.687219e-004 
1.723870e-004 
1.761415e-004 
1.797177e-004 
1.833166e-004 
1.870672e-004 
1.906366e-004 
1.939391e-004 
1.972654e-004 
2.005082e-004 
2.033290e-004 
2.058851e-004 
2.083775e-004 
2.104942e-004 
2.120850e-004 
2.134563e-004 
2.145797e-004 
2.151149e-004 
2.151874e-004 
2.150522e-004 
2.144665e-004 
2.132762e-004 
2.117860e-004 
2.100384e-004 
2.077571e-004 
2.050633e-004 
2.022256e-004 
1.990881e-004 
1.955509e-004 
1.918965e-004 
1.882001e-004 
1.842868e-004 
1.802889e-004 
1.764333e-004 
1.726347e-004 
1.688683e-004 
1.653546e-004 
1.621451e-004 
1.591561e-004 
1.565027e-004 
1.543058e-004 
1.525065e-004 
1.511171e-004 
1.502376e-004 
1.498458e-004 
1.498982e-004 
1.504370e-004 
1.514443e-004 
1.528527e-004 
1.546576e-004 
1.568293e-004 
1.592809e-004 
1.619807e-004 
1.649010e-004 
1.679452e-004 
1.710567e-004 
1.742283e-004 
1.773840e-004 
1.804437e-004 
1.834135e-004 
1.862703e-004 
1.889330e-004 
1.913939e-004 
1.936860e-004 
1.957637e-004 
1.975938e-004 
1.992274e-004 
2.006814e-004 
2.019111e-004 
2.029455e-004 
2.038448e-004 
2.045933e-004 
2.051735e-004 
2.056524e-004 
2.060526e-004 
2.063411e-004 
2.065358e-004 
2.066967e-004 
2.067940e-004 
2.068072e-004 
2.067646e-004 
2.066807e-004 
2.064935e-004 
2.062290e-004 
2.058970e-004 
2.054018e-004 
1.000000e+000 
1.000000e+000 
1.128663e-004 
1.128451e-004 
1.128880e-004 
1.130750e-004 
1.133286e-004 
1.136236e-004 
1.140088e-004 
1.144873e-004 
1.149721e-004 
1.154925e-004 
1.160970e-004 
1.167360e-004 
1.173545e-004 
1.180265e-004 
1.187678e-004 
1.195060e-004 
1.202493e-004 
1.210855e-004 
1.219814e-004 
1.228833e-004 
1.238603e-004 
1.249706e-004 
1.261446e-004 
1.273794e-004 
1.287707e-004 
1.303210e-004 
1.319569e-004 
1.337311e-004 
1.357239e-004 
1.378824e-004 
1.401600e-004 
1.426452e-004 
1.453701e-004 
1.482446e-004 
1.512623e-004 
1.545171e-004 
1.579766e-004 
1.615340e-004 
1.652258e-004 
1.691228e-004 
1.731218e-004 
1.771251e-004 
1.812135e-004 
1.854052e-004 
1.895319e-004 
1.935461e-004 
1.975649e-004 
2.015175e-004 
2.052063e-004 
2.086846e-004 
2.120632e-004 
2.151563e-004 
2.178199e-004 
2.202284e-004 
2.224013e-004 
2.240705e-004 
2.252522e-004 
2.261795e-004 
2.267029e-004 
2.265955e-004 
2.260857e-004 
2.253175e-004 
2.239935e-004 
2.220972e-004 
2.199801e-004 
2.175590e-004 
2.145570e-004 
2.112473e-004 
2.078861e-004 
2.041779e-004 
2.000934e-004 
1.960659e-004 
1.920647e-004 
1.877983e-004 
1.835670e-004 
1.796754e-004 
1.758333e-004 
1.720119e-004 
1.686525e-004 
1.657176e-004 
1.629157e-004 
1.605268e-004 
1.588028e-004 
1.574359e-004 
1.563831e-004 
1.559948e-004 
1.561665e-004 
1.566041e-004 
1.575086e-004 
1.590114e-004 
1.607916e-004 
1.627791e-004 
1.651972e-004 
1.678937e-004 
1.706037e-004 
1.734529e-004 
1.765003e-004 
1.794777e-004 
1.823245e-004 
1.852010e-004 
1.879960e-004 
1.905225e-004 
1.928877e-004 
1.951638e-004 
1.971820e-004 
1.989182e-004 
2.005243e-004 
2.019647e-004 
2.031235e-004 
2.041005e-004 
2.049910e-004 
2.057023e-004 
2.062149e-004 
2.066638e-004 
2.070517e-004 
2.072924e-004 
2.074427e-004 
2.075970e-004 
2.076822e-004 
2.076576e-004 
2.076067e-004 
2.075512e-004 
2.073795e-004 
2.070847e-004 
2.067262e-004 
2.063209e-004 
1.000000e+000 
1.000000e+000 
1.117831e-004 
1.118688e-004 
1.119979e-004 
1.121925e-004 
1.125069e-004 
1.128855e-004 
1.132625e-004 
1.137377e-004 
1.143045e-004 
1.148546e-004 
1.154144e-004 
1.160891e-004 
1.167821e-004 
1.174260e-004 
1.181445e-004 
1.189686e-004 
1.197522e-004 
1.205448e-004 
1.214954e-004 
1.225166e-004 
1.235055e-004 
1.246329e-004 
1.259670e-004 
1.273347e-004 
1.287639e-004 
1.304666e-004 
1.323598e-004 
1.342873e-004 
1.364272e-004 
1.389062e-004 
1.415093e-004 
1.442088e-004 
1.472540e-004 
1.505887e-004 
1.539729e-004 
1.575520e-004 
1.615038e-004 
1.655875e-004 
1.696755e-004 
1.740239e-004 
1.786151e-004 
1.831343e-004 
1.876499e-004 
1.923832e-004 
1.970996e-004 
2.015788e-004 
2.060506e-004 
2.105571e-004 
2.147583e-004 
2.186488e-004 
2.224748e-004 
2.260565e-004 
2.291353e-004 
2.319053e-004 
2.344657e-004 
2.365207e-004 
2.380308e-004 
2.392408e-004 
2.400467e-004 
2.402272e-004 
2.399468e-004 
2.393319e-004 
2.381802e-004 
2.364745e-004 
2.344291e-004 
2.320059e-004 
2.290842e-004 
2.258125e-004 
2.223027e-004 
2.184663e-004 
2.143509e-004 
2.101122e-004 
2.057525e-004 
2.012777e-004 
1.968165e-004 
1.924246e-004 
1.881166e-004 
1.839966e-004 
1.801245e-004 
1.765073e-004 
1.732445e-004 
1.703990e-004 
1.679329e-004 
1.659123e-004 
1.644304e-004 
1.634114e-004 
1.628299e-004 
1.627972e-004 
1.632617e-004 
1.640867e-004 
1.653353e-004 
1.670323e-004 
1.689938e-004 
1.711667e-004 
1.736353e-004 
1.762761e-004 
1.789248e-004 
1.816444e-004 
1.844370e-004 
1.871172e-004 
1.896550e-004 
1.921462e-004 
1.944963e-004 
1.965870e-004 
1.985090e-004 
2.003043e-004 
2.018486e-004 
2.031478e-004 
2.043247e-004 
2.053422e-004 
2.061217e-004 
2.067639e-004 
2.073387e-004 
2.077627e-004 
2.080382e-004 
2.082861e-004 
2.084869e-004 
2.085662e-004 
2.085930e-004 
2.086355e-004 
2.086001e-004 
2.084604e-004 
2.083052e-004 
2.081311e-004 
2.078237e-004 
2.073727e-004 
1.000000e+000 
1.000000e+000 
1.106639e-004 
1.108106e-004 
1.110305e-004 
1.112852e-004 
1.115977e-004 
1.120293e-004 
1.124976e-004 
1.129695e-004 
1.135137e-004 
1.141449e-004 