# vtk DataFile Version 2.0
2D-ADE data file 
ASCII
DATASET RECTILINEAR_GRID
DIMENSIONS 128 128 1
X_COORDINATES 128 int
0 1 2 3 4 5 6 7 8 9 10 11 12 13 14 15 16 17 18 19 20 21 22 23 24 25 26 27 28 29 30 31 32 33 34 35 36 37 38 39 40 41 42 43 44 45 46 47 48 49 50 51 52 53 54 55 56 57 58 59 60 61 62 63 64 65 66 67 68 69 70 71 72 73 74 75 76 77 78 79 80 81 82 83 84 85 86 87 88 89 90 91 92 93 94 95 96 97 98 99 100 101 102 103 104 105 106 107 108 109 110 111 112 113 114 115 116 117 118 119 120 121 122 123 124 125 126 127 
Y_COORDINATES 128 int
0 1 2 3 4 5 6 7 8 9 10 11 12 13 14 15 16 17 18 19 20 21 22 23 24 25 26 27 28 29 30 31 32 33 34 35 36 37 38 39 40 41 42 43 44 45 46 47 48 49 50 51 52 53 54 55 56 57 58 59 60 61 62 63 64 65 66 67 68 69 70 71 72 73 74 75 76 77 78 79 80 81 82 83 84 85 86 87 88 89 90 91 92 93 94 95 96 97 98 99 100 101 102 103 104 105 106 107 108 109 110 111 112 113 114 115 116 117 118 119 120 121 122 123 124 125 126 127 
Z_COORDINATES 1 int
0
POINT_DATA 16384 
SCALARS density double 1
LOOKUP_TABLE default
1.000000e+000 
1.000000e+000 
1.000000e+000 
1.000000e+000 
1.000000e+000 
1.000000e+000 
1.000000e+000 
1.000000e+000 
1.000000e+000 
1.000000e+000 
1.000000e+000 
1.000000e+000 
1.000000e+000 
1.000000e+000 
1.000000e+000 
1.000000e+000 
1.000000e+000 
1.000000e+000 
1.000000e+000 
1.000000e+000 
1.000000e+000 
1.000000e+000 
1.000000e+000 
1.000000e+000 
1.000000e+000 
1.000000e+000 
1.000000e+000 
1.000000e+000 
1.000000e+000 
1.000000e+000 
1.000000e+000 
1.000000e+000 
1.000000e+000 
1.000000e+000 
1.000000e+000 
1.000000e+000 
1.000000e+000 
1.000000e+000 
1.000000e+000 
1.000000e+000 
1.000000e+000 
1.000000e+000 
1.000000e+000 
1.000000e+000 
1.000000e+000 
1.000000e+000 
1.000000e+000 
1.000000e+000 
1.000000e+000 
1.000000e+000 
1.000000e+000 
1.000000e+000 
1.000000e+000 
1.000000e+000 
1.000000e+000 
1.000000e+000 
1.000000e+000 
1.000000e+000 
1.000000e+000 
1.000000e+000 
1.000000e+000 
1.000000e+000 
1.000000e+000 
1.000000e+000 
1.000000e+000 
1.000000e+000 
1.000000e+000 
1.000000e+000 
1.000000e+000 
1.000000e+000 
1.000000e+000 
1.000000e+000 
1.000000e+000 
1.000000e+000 
1.000000e+000 
1.000000e+000 
1.000000e+000 
1.000000e+000 
1.000000e+000 
1.000000e+000 
1.000000e+000 
1.000000e+000 
1.000000e+000 
1.000000e+000 
1.000000e+000 
1.000000e+000 
1.000000e+000 
1.000000e+000 
1.000000e+000 
1.000000e+000 
1.000000e+000 
1.000000e+000 
1.000000e+000 
1.000000e+000 
1.000000e+000 
1.000000e+000 
1.000000e+000 
1.000000e+000 
1.000000e+000 
1.000000e+000 
1.000000e+000 
1.000000e+000 
1.000000e+000 
1.000000e+000 
1.000000e+000 
1.000000e+000 
1.000000e+000 
1.000000e+000 
1.000000e+000 
1.000000e+000 
1.000000e+000 
1.000000e+000 
1.000000e+000 
1.000000e+000 
1.000000e+000 
1.000000e+000 
1.000000e+000 
1.000000e+000 
1.000000e+000 
1.000000e+000 
1.000000e+000 
1.000000e+000 
1.000000e+000 
1.000000e+000 
1.000000e+000 
1.000000e+000 
1.000000e+000 
1.000000e+000 
1.000000e+000 
1.478131e-004 
1.477848e-004 
1.478053e-004 
1.478765e-004 
1.479471e-004 
1.480512e-004 
1.482135e-004 
1.483545e-004 
1.484900e-004 
1.486614e-004 
1.488592e-004 
1.489992e-004 
1.491645e-004 
1.493660e-004 
1.495517e-004 
1.496870e-004 
1.498874e-004 
1.500988e-004 
1.502629e-004 
1.504206e-004 
1.506598e-004 
1.508608e-004 
1.510165e-004 
1.512215e-004 
1.514792e-004 
1.516523e-004 
1.518232e-004 
1.520734e-004 
1.523082e-004 
1.524492e-004 
1.526516e-004 
1.529087e-004 
1.530773e-004 
1.531970e-004 
1.534195e-004 
1.536186e-004 
1.536973e-004 
1.538069e-004 
1.539988e-004 
1.540736e-004 
1.540652e-004 
1.541517e-004 
1.542315e-004 
1.541429e-004 
1.540616e-004 
1.540710e-004 
1.539574e-004 
1.537074e-004 
1.535511e-004 
1.533980e-004 
1.530495e-004 
1.526709e-004 
1.524025e-004 
1.520111e-004 
1.514527e-004 
1.509803e-004 
1.505414e-004 
1.499007e-004 
1.492168e-004 
1.486662e-004 
1.480280e-004 
1.472242e-004 
1.465229e-004 
1.459027e-004 
1.451239e-004 
1.443232e-004 
1.437000e-004 
1.430564e-004 
1.423018e-004 
1.416881e-004 
1.412210e-004 
1.406770e-004 
1.401662e-004 
1.398787e-004 
1.396504e-004 
1.393889e-004 
1.393043e-004 
1.394129e-004 
1.395217e-004 
1.397071e-004 
1.401220e-004 
1.406386e-004 
1.411651e-004 
1.418572e-004 
1.427254e-004 
1.436170e-004 
1.445666e-004 
1.456892e-004 
1.468826e-004 
1.480694e-004 
1.493433e-004 
1.507223e-004 
1.520794e-004 
1.534344e-004 
1.548568e-004 
1.562900e-004 
1.576535e-004 
1.590237e-004 
1.604031e-004 
1.617218e-004 
1.629632e-004 
1.642057e-004 
1.653920e-004 
1.664910e-004 
1.675222e-004 
1.685359e-004 
1.694471e-004 
1.702826e-004 
1.710565e-004 
1.717924e-004 
1.724069e-004 
1.729751e-004 
1.734743e-004 
1.739240e-004 
1.742525e-004 
1.745620e-004 
1.747840e-004 
1.749574e-004 
1.750170e-004 
1.750768e-004 
1.750377e-004 
1.749670e-004 
1.748118e-004 
1.746882e-004 
1.745674e-004 
1.745045e-004 
1.000000e+000 
1.000000e+000 
1.478188e-004 
1.477968e-004 
1.478020e-004 
1.478795e-004 
1.479554e-004 
1.480317e-004 
1.481689e-004 
1.483109e-004 
1.484490e-004 
1.485800e-004 
1.487710e-004 
1.489208e-004 
1.490784e-004 
1.492409e-004 
1.494432e-004 
1.495870e-004 
1.497642e-004 
1.499507e-004 
1.501478e-004 
1.502973e-004 
1.505028e-004 
1.507028e-004 
1.508919e-004 
1.510628e-004 
1.512920e-004 
1.514884e-004 
1.516729e-004 
1.518683e-004 
1.520979e-004 
1.522737e-004 
1.524552e-004 
1.526564e-004 
1.528531e-004 
1.529959e-004 
1.531633e-004 
1.533327e-004 
1.534656e-004 
1.535629e-004 
1.536862e-004 
1.537793e-004 
1.538254e-004 
1.538545e-004 
1.538891e-004 
1.538683e-004 
1.538066e-004 
1.537310e-004 
1.536332e-004 
1.534726e-004 
1.532767e-004 
1.530571e-004 
1.527995e-004 
1.524809e-004 
1.521247e-004 
1.517412e-004 
1.513182e-004 
1.508322e-004 
1.503127e-004 
1.497810e-004 
1.492070e-004 
1.485708e-004 
1.479329e-004 
1.473030e-004 
1.466196e-004 
1.459047e-004 
1.452440e-004 
1.445908e-004 
1.438863e-004 
1.432275e-004 
1.426640e-004 
1.420860e-004 
1.415090e-004 
1.410703e-004 
1.407160e-004 
1.403426e-004 
1.400734e-004 
1.399859e-004 
1.399310e-004 
1.399102e-004 
1.400882e-004 
1.404052e-004 
1.407197e-004 
1.411635e-004 
1.418173e-004 
1.425166e-004 
1.432365e-004 
1.441519e-004 
1.451889e-004 
1.462016e-004 
1.472937e-004 
1.485590e-004 
1.498171e-004 
1.510473e-004 
1.523888e-004 
1.538011e-004 
1.551156e-004 
1.564451e-004 
1.578493e-004 
1.592075e-004 
1.604513e-004 
1.617471e-004 
1.630266e-004 
1.641951e-004 
1.652831e-004 
1.664208e-004 
1.674456e-004 
1.683686e-004 
1.692469e-004 
1.701377e-004 
1.708563e-004 
1.715331e-004 
1.721669e-004 
1.727705e-004 
1.731912e-004 
1.736398e-004 
1.740059e-004 
1.743228e-004 
1.744789e-004 
1.747098e-004 
1.748005e-004 
1.748584e-004 
1.747980e-004 
1.748275e-004 
1.746966e-004 
1.745856e-004 
1.745066e-004 
1.744841e-004 
1.000000e+000 
1.000000e+000 
1.477777e-004 
1.478011e-004 
1.478061e-004 
1.478287e-004 
1.479198e-004 
1.480317e-004 
1.481117e-004 
1.482299e-004 
1.483990e-004 
1.485306e-004 
1.486489e-004 
1.488261e-004 
1.490091e-004 
1.491318e-004 
1.492889e-004 
1.494983e-004 
1.496619e-004 
1.497902e-004 
1.499962e-004 
1.502092e-004 
1.503492e-004 
1.505141e-004 
1.507595e-004 
1.509460e-004 
1.510817e-004 
1.513005e-004 
1.515469e-004 
1.516899e-004 
1.518490e-004 
1.521035e-004 
1.522994e-004 
1.524051e-004 
1.525999e-004 
1.528340e-004 
1.529413e-004 
1.530317e-004 
1.532363e-004 
1.533773e-004 
1.533898e-004 
1.534766e-004 
1.536227e-004 
1.536144e-004 
1.535525e-004 
1.536093e-004 
1.536093e-004 
1.534378e-004 
1.533202e-004 
1.532759e-004 
1.530646e-004 
1.527580e-004 
1.525705e-004 
1.523382e-004 
1.519101e-004 
1.515107e-004 
1.512022e-004 
1.507335e-004 
1.501487e-004 
1.496823e-004 
1.492008e-004 
1.485324e-004 
1.478882e-004 
1.473589e-004 
1.467132e-004 
1.459701e-004 
1.453610e-004 
1.447876e-004 
1.440860e-004 
1.434359e-004 
1.429381e-004 
1.424011e-004 
1.418298e-004 
1.414215e-004 
1.411104e-004 
1.407610e-004 
1.405081e-004 
1.404374e-004 
1.404066e-004 
1.404107e-004 
1.405899e-004 
1.409010e-004 
1.412423e-004 
1.416967e-004 
1.423186e-004 
1.430121e-004 
1.437607e-004 
1.446455e-004 
1.456351e-004 
1.466604e-004 
1.477557e-004 
1.489495e-004 
1.501798e-004 
1.514278e-004 
1.527263e-004 
1.540600e-004 
1.553812e-004 
1.567022e-004 
1.580307e-004 
1.593399e-004 
1.606076e-004 
1.618522e-004 
1.630618e-004 
1.642206e-004 
1.653210e-004 
1.663779e-004 
1.673729e-004 
1.683057e-004 
1.691705e-004 
1.699814e-004 
1.707202e-004 
1.713963e-004 
1.720006e-004 
1.725519e-004 
1.730288e-004 
1.734468e-004 
1.737947e-004 
1.740962e-004 
1.743219e-004 
1.744954e-004 
1.746079e-004 
1.746805e-004 
1.746831e-004 
1.746529e-004 
1.745987e-004 
1.745139e-004 
1.744122e-004 
1.743379e-004 
1.000000e+000 
1.000000e+000 
1.477243e-004 
1.477207e-004 
1.477585e-004 
1.477986e-004 
1.478597e-004 
1.479661e-004 
1.480689e-004 
1.481738e-004 
1.483010e-004 
1.484546e-004 
1.485825e-004 
1.487217e-004 
1.488822e-004 
1.490482e-004 
1.491862e-004 
1.493507e-004 
1.495292e-004 
1.496965e-004 
1.498488e-004 
1.500378e-004 
1.502250e-004 
1.503937e-004 
1.505672e-004 
1.507739e-004 
1.509598e-004 
1.511319e-004 
1.513240e-004 
1.515320e-004 
1.517049e-004 
1.518770e-004 
1.520721e-004 
1.522578e-004 
1.524045e-004 
1.525640e-004 
1.527355e-004 
1.528724e-004 
1.529765e-004 
1.531015e-004 
1.532158e-004 
1.532761e-004 
1.533179e-004 
1.533790e-004 
1.533979e-004 
1.533548e-004 
1.533128e-004 
1.532739e-004 
1.531585e-004 
1.529916e-004 
1.528448e-004 
1.526654e-004 
1.523859e-004 
1.520900e-004 
1.518171e-004 
1.514614e-004 
1.510163e-004 
1.506048e-004 
1.501867e-004 
1.496475e-004 
1.490798e-004 
1.485800e-004 
1.480150e-004 
1.473448e-004 
1.467401e-004 
1.461877e-004 
1.455236e-004 
1.448470e-004 
1.443077e-004 
1.437568e-004 
1.431187e-004 
1.426023e-004 
1.422185e-004 
1.417666e-004 
1.413422e-004 
1.411309e-004 
1.409745e-004 
1.407697e-004 
1.407380e-004 
1.409019e-004 
1.410414e-004 
1.412373e-004 
1.416809e-004 
1.422116e-004 
1.427108e-004 
1.433825e-004 
1.442508e-004 
1.450943e-004 
1.459742e-004 
1.470607e-004 
1.482081e-004 
1.492908e-004 
1.504843e-004 
1.518082e-004 
1.530680e-004 
1.542966e-004 
1.556481e-004 
1.569968e-004 
1.582334e-004 
1.594916e-004 
1.608095e-004 
1.620158e-004 
1.631388e-004 
1.643006e-004 
1.654267e-004 
1.664046e-004 
1.673578e-004 
1.683163e-004 
1.691678e-004 
1.699000e-004 
1.706474e-004 
1.713388e-004 
1.719061e-004 
1.724083e-004 
1.729271e-004 
1.733348e-004 
1.736503e-004 
1.739405e-004 
1.742201e-004 
1.743624e-004 
1.744699e-004 
1.745627e-004 
1.746153e-004 
1.745417e-004 
1.744982e-004 
1.744473e-004 
1.743447e-004 
1.741781e-004 
1.000000e+000 
1.000000e+000 
1.476558e-004 
1.476320e-004 
1.476667e-004 
1.477519e-004 
1.478043e-004 
1.478703e-004 
1.480001e-004 
1.481259e-004 
1.482083e-004 
1.483438e-004 
1.485137e-004 
1.486353e-004 
1.487478e-004 
1.489346e-004 
1.491017e-004 
1.492153e-004 
1.493752e-004 
1.495881e-004 
1.497311e-004 
1.498624e-004 
1.500755e-004 
1.502803e-004 
1.504033e-004 
1.505814e-004 
1.508238e-004 
1.509899e-004 
1.511176e-004 
1.513470e-004 
1.515694e-004 
1.516875e-004 
1.518460e-004 
1.520916e-004 
1.522439e-004 
1.523305e-004 
1.525199e-004 
1.527160e-004 
1.527739e-004 
1.528531e-004 
1.530308e-004 
1.531103e-004 
1.530838e-004 
1.531561e-004 
1.532445e-004 
1.531714e-004 
1.530859e-004 
1.531067e-004 
1.530279e-004 
1.528105e-004 
1.526724e-004 
1.525628e-004 
1.522794e-004 
1.519535e-004 
1.517301e-004 
1.514205e-004 
1.509567e-004 
1.505535e-004 
1.501907e-004 
1.496720e-004 
1.491001e-004 
1.486286e-004 
1.481036e-004 
1.474510e-004 
1.468563e-004 
1.463258e-004 
1.456971e-004 
1.450459e-004 
1.445060e-004 
1.439714e-004 
1.433830e-004 
1.428780e-004 
1.424722e-004 
1.420586e-004 
1.416862e-004 
1.414442e-004 
1.412734e-004 
1.411402e-004 
1.411203e-004 
1.412221e-004 
1.413952e-004 
1.416602e-004 
1.420500e-004 
1.425401e-004 
1.431196e-004 
1.438017e-004 
1.445812e-004 
1.454488e-004 
1.464011e-004 
1.474214e-004 
1.485093e-004 
1.496664e-004 
1.508656e-004 
1.520889e-004 
1.533565e-004 
1.546499e-004 
1.559306e-004 
1.572084e-004 
1.585013e-004 
1.597627e-004 
1.609775e-004 
1.621766e-004 
1.633511e-004 
1.644502e-004 
1.654993e-004 
1.665195e-004 
1.674764e-004 
1.683455e-004 
1.691777e-004 
1.699599e-004 
1.706582e-004 
1.712834e-004 
1.718818e-004 
1.724058e-004 
1.728510e-004 
1.732470e-004 
1.736123e-004 
1.738864e-004 
1.741076e-004 
1.742943e-004 
1.744359e-004 
1.744871e-004 
1.745209e-004 
1.745249e-004 
1.744740e-004 
1.743582e-004 
1.742152e-004 
1.740625e-004 
1.000000e+000 
1.000000e+000 
1.475160e-004 
1.475480e-004 
1.475742e-004 
1.476373e-004 
1.477297e-004 
1.478134e-004 
1.478998e-004 
1.480233e-004 
1.481517e-004 
1.482581e-004 
1.483838e-004 
1.485403e-004 
1.486765e-004 
1.487977e-004 
1.489575e-004 
1.491282e-004 
1.492632e-004 
1.494086e-004 
1.495987e-004 
1.497690e-004 
1.499084e-004 
1.500883e-004 
1.502947e-004 
1.504539e-004 
1.506091e-004 
1.508200e-004 
1.510179e-004 
1.511615e-004 
1.513392e-004 
1.515581e-004 
1.517202e-004 
1.518506e-004 
1.520427e-004 
1.522305e-004 
1.523371e-004 
1.524571e-004 
1.526347e-004 
1.527476e-004 
1.527917e-004 
1.528941e-004 
1.530081e-004 
1.530108e-004 
1.529949e-004 
1.530512e-004 
1.530430e-004 
1.529203e-004 
1.528443e-004 
1.528019e-004 
1.526229e-004 
1.523829e-004 
1.522307e-004 
1.520251e-004 
1.516613e-004 
1.513286e-004 
1.510627e-004 
1.506497e-004 
1.501389e-004 
1.497380e-004 
1.493163e-004 
1.487141e-004 
1.481404e-004 
1.476846e-004 
1.471037e-004 
1.464169e-004 
1.458808e-004 
1.453844e-004 
1.447274e-004 
1.441251e-004 
1.437099e-004 
1.432275e-004 
1.426721e-004 
1.423225e-004 
1.420866e-004 
1.417453e-004 
1.415028e-004 
1.415067e-004 
1.415084e-004 
1.414837e-004 
1.416979e-004 
1.420701e-004 
1.423832e-004 
1.428121e-004 
1.434907e-004 
1.441905e-004 
1.448743e-004 
1.457664e-004 
1.467939e-004 
1.477598e-004 
1.487983e-004 
1.500194e-004 
1.512284e-004 
1.523814e-004 
1.536554e-004 
1.549947e-004 
1.562321e-004 
1.574665e-004 
1.587897e-004 
1.600521e-004 
1.612077e-004 
1.623983e-004 
1.635914e-004 
1.646557e-004 
1.656595e-004 
1.666903e-004 
1.676386e-004 
1.684629e-004 
1.692734e-004 
1.700667e-004 
1.707356e-004 
1.713284e-004 
1.719231e-004 
1.724513e-004 
1.728622e-004 
1.732479e-004 
1.736184e-004 
1.738936e-004 
1.740880e-004 
1.742847e-004 
1.744340e-004 
1.744891e-004 
1.745047e-004 
1.745213e-004 
1.744531e-004 
1.743313e-004 
1.742040e-004 
1.740147e-004 
1.000000e+000 
1.000000e+000 
1.473487e-004 
1.474244e-004 
1.474827e-004 
1.475233e-004 
1.476193e-004 
1.477416e-004 
1.478178e-004 
1.479100e-004 
1.480608e-004 
1.481853e-004 
1.482739e-004 
1.484173e-004 
1.485863e-004 
1.486962e-004 
1.488162e-004 
1.490025e-004 
1.491610e-004 
1.492702e-004 
1.494414e-004 
1.496464e-004 
1.497827e-004 
1.499204e-004 
1.501399e-004 
1.503296e-004 
1.504538e-004 
1.506407e-004 
1.508750e-004 
1.510244e-004 
1.511605e-004 
1.513874e-004 
1.515866e-004 
1.516944e-004 
1.518593e-004 
1.520815e-004 
1.522057e-004 
1.522908e-004 
1.524706e-004 
1.526250e-004 
1.526636e-004 
1.527410e-004 
1.528834e-004 
1.529185e-004 
1.528863e-004 
1.529392e-004 
1.529720e-004 
1.528700e-004 
1.527804e-004 
1.527528e-004 
1.526190e-004 
1.523936e-004 
1.522318e-004 
1.520537e-004 
1.517403e-004 
1.514131e-004 
1.511362e-004 
1.507691e-004 
1.503095e-004 
1.498899e-004 
1.494637e-004 
1.489342e-004 
1.483879e-004 
1.478829e-004 
1.473315e-004 
1.467293e-004 
1.461630e-004 
1.456162e-004 
1.450426e-004 
1.444875e-004 
1.439828e-004 
1.435043e-004 
1.430588e-004 
1.426700e-004 
1.423418e-004 
1.420874e-004 
1.419086e-004 
1.417959e-004 
1.417821e-004 
1.418841e-004 
1.420583e-004 
1.423169e-004 
1.427186e-004 
1.432230e-004 
1.437793e-004 
1.444566e-004 
1.452725e-004 
1.461312e-004 
1.470442e-004 
1.480937e-004 
1.492100e-004 
1.503175e-004 
1.514993e-004 
1.527729e-004 
1.540194e-004 
1.552492e-004 
1.565514e-004 
1.578538e-004 
1.590736e-004 
1.602975e-004 
1.615477e-004 
1.627135e-004 
1.638002e-004 
1.649022e-004 
1.659596e-004 
1.668988e-004 
1.677961e-004 
1.686900e-004 
1.694821e-004 
1.701777e-004 
1.708631e-004 
1.715050e-004 
1.720276e-004 
1.725035e-004 
1.729715e-004 
1.733579e-004 
1.736479e-004 
1.739339e-004 
1.741850e-004 
1.743397e-004 
1.744408e-004 
1.745492e-004 
1.745835e-004 
1.745425e-004 
1.744804e-004 
1.743855e-004 
1.741752e-004 
1.739360e-004 
1.000000e+000 
1.000000e+000 
1.472089e-004 
1.472551e-004 
1.473450e-004 
1.474415e-004 
1.475106e-004 
1.476084e-004 
1.477395e-004 
1.478428e-004 
1.479326e-004 
1.480720e-004 
1.482143e-004 
1.483123e-004 
1.484337e-004 
1.486045e-004 
1.487380e-004 
1.488436e-004 
1.490108e-004 
1.491945e-004 
1.493146e-004 
1.494537e-004 
1.496641e-004 
1.498359e-004 
1.499554e-004 
1.501462e-004 
1.503722e-004 
1.505144e-004 
1.506563e-004 
1.508913e-004 
1.510908e-004 
1.512039e-004 
1.513850e-004 
1.516256e-004 
1.517621e-004 
1.518646e-004 
1.520766e-004 
1.522646e-004 
1.523255e-004 
1.524373e-004 
1.526362e-004 
1.527166e-004 
1.527164e-004 
1.528336e-004 
1.529472e-004 
1.528918e-004 
1.528549e-004 
1.529323e-004 
1.528858e-004 
1.527039e-004 
1.526358e-004 
1.525917e-004 
1.523432e-004 
1.520706e-004 
1.519368e-004 
1.516882e-004 
1.512553e-004 
1.509274e-004 
1.506605e-004 
1.501769e-004 
1.496365e-004 
1.492633e-004 
1.488092e-004 
1.481555e-004 
1.476117e-004 
1.471821e-004 
1.465659e-004 
1.458982e-004 
1.454399e-004 
1.449653e-004 
1.443287e-004 
1.438346e-004 
1.435187e-004 
1.430881e-004 
1.426529e-004 
1.424723e-004 
1.423488e-004 
1.421350e-004 
1.421010e-004 
1.422870e-004 
1.424309e-004 
1.426167e-004 
1.430633e-004 
1.436012e-004 
1.440979e-004 
1.447658e-004 
1.456310e-004 
1.464754e-004 
1.473546e-004 
1.484311e-004 
1.495664e-004 
1.506493e-004 
1.518315e-004 
1.531278e-004 
1.543691e-004 
1.555877e-004 
1.569000e-004 
1.582049e-004 
1.594144e-004 
1.606357e-004 
1.618848e-004 
1.630399e-004 
1.641190e-004 
1.652124e-004 
1.662557e-004 
1.671828e-004 
1.680706e-004 
1.689448e-004 
1.697209e-004 
1.704068e-004 
1.710758e-004 
1.716949e-004 
1.722100e-004 
1.726755e-004 
1.731231e-004 
1.734970e-004 
1.737893e-004 
1.740606e-004 
1.742978e-004 
1.744550e-004 
1.745594e-004 
1.746520e-004 
1.746857e-004 
1.746401e-004 
1.745604e-004 
1.744624e-004 
1.742854e-004 
1.740088e-004 
1.000000e+000 
1.000000e+000 
1.470469e-004 
1.471056e-004 
1.471913e-004 
1.473215e-004 
1.474187e-004 
1.474961e-004 
1.476226e-004 
1.477598e-004 
1.478474e-004 
1.479540e-004 
1.481081e-004 
1.482318e-004 
1.483247e-004 
1.484719e-004 
1.486350e-004 
1.487467e-004 
1.488721e-004 
1.490571e-004 
1.492127e-004 
1.493318e-004 
1.495068e-004 
1.497082e-004 
1.498503e-004 
1.500008e-004 
1.502168e-004 
1.504053e-004 
1.505430e-004 
1.507352e-004 
1.509587e-004 
1.511147e-004 
1.512642e-004 
1.514818e-004 
1.516711e-004 
1.517944e-004 
1.519609e-004 
1.521622e-004 
1.522884e-004 
1.523896e-004 
1.525513e-004 
1.526869e-004 
1.527423e-004 
1.528205e-004 
1.529294e-004 
1.529626e-004 
1.529493e-004 
1.529752e-004 
1.529758e-004 
1.528913e-004 
1.527987e-004 
1.527204e-004 
1.525752e-004 
1.523685e-004 
1.521651e-004 
1.519372e-004 
1.516381e-004 
1.513024e-004 
1.509568e-004 
1.505720e-004 
1.501354e-004 
1.496689e-004 
1.491892e-004 
1.486891e-004 
1.481496e-004 
1.475881e-004 
1.470473e-004 
1.465079e-004 
1.459319e-004 
1.453798e-004 
1.448994e-004 
1.444159e-004 
1.439251e-004 
1.435428e-004 
1.432470e-004 
1.429354e-004 
1.427013e-004 
1.426392e-004 
1.426219e-004 
1.426198e-004 
1.427988e-004 
1.431275e-004 
1.434512e-004 
1.438778e-004 
1.445215e-004 
1.452162e-004 
1.459126e-004 
1.467926e-004 
1.478119e-004 
1.487900e-004 
1.498324e-004 
1.510506e-004 
1.522679e-004 
1.534263e-004 
1.546990e-004 
1.560416e-004 
1.572786e-004 
1.585027e-004 
1.598201e-004 
1.610735e-004 
1.622059e-004 
1.633729e-004 
1.645480e-004 
1.655785e-004 
1.665407e-004 
1.675391e-004 
1.684517e-004 
1.692223e-004 
1.699875e-004 
1.707439e-004 
1.713640e-004 
1.719020e-004 
1.724622e-004 
1.729542e-004 
1.733188e-004 
1.736692e-004 
1.740235e-004 
1.742690e-004 
1.744373e-004 
1.746272e-004 
1.747714e-004 
1.748013e-004 
1.748100e-004 
1.748278e-004 
1.747453e-004 
1.745626e-004 
1.743652e-004 
1.741442e-004 
1.000000e+000 
1.000000e+000 
1.468348e-004 
1.469754e-004 
1.470702e-004 
1.471585e-004 
1.472993e-004 
1.474294e-004 
1.475093e-004 
1.476259e-004 
1.477806e-004 
1.478826e-004 
1.479680e-004 
1.481238e-004 
1.482713e-004 
1.483540e-004 
1.484804e-004 
1.486694e-004 
1.487939e-004 
1.488903e-004 
1.490793e-004 
1.492738e-004 
1.493779e-004 
1.495268e-004 
1.497660e-004 
1.499324e-004 
1.500414e-004 
1.502617e-004 
1.505058e-004 
1.506283e-004 
1.507787e-004 
1.510503e-004 
1.512443e-004 
1.513395e-004 
1.515522e-004 
1.518166e-004 
1.519275e-004 
1.520334e-004 
1.522883e-004 
1.524726e-004 
1.525077e-004 
1.526520e-004 
1.528817e-004 
1.529328e-004 
1.529297e-004 
1.530945e-004 
1.532054e-004 
1.531151e-004 
1.531062e-004 
1.532148e-004 
1.531299e-004 
1.529324e-004 
1.529051e-004 
1.528484e-004 
1.525481e-004 
1.522896e-004 
1.521742e-004 
1.518697e-004 
1.514058e-004 
1.511063e-004 
1.508120e-004 
1.502660e-004 
1.497365e-004 
1.493769e-004 
1.488665e-004 
1.481959e-004 
1.476971e-004 
1.472562e-004 
1.466118e-004 
1.460017e-004 
1.455984e-004 
1.451205e-004 
1.445423e-004 
1.441653e-004 
1.439078e-004 
1.435411e-004 
1.432613e-004 
1.432183e-004 
1.431836e-004 
1.431332e-004 
1.433024e-004 
1.436227e-004 
1.439177e-004 
1.443308e-004 
1.449607e-004 
1.456339e-004 
1.463315e-004 
1.472067e-004 
1.481977e-004 
1.491803e-004 
1.502438e-004 
1.514375e-004 
1.526399e-004 
1.538357e-004 
1.551116e-004 
1.564184e-004 
1.576766e-004 
1.589371e-004 
1.602231e-004 
1.614587e-004 
1.626348e-004 
1.638016e-004 
1.649300e-004 
1.659746e-004 
1.669674e-004 
1.679250e-004 
1.688067e-004 
1.696097e-004 
1.703673e-004 
1.710683e-004 
1.716896e-004 
1.722515e-004 
1.727691e-004 
1.732245e-004 
1.736154e-004 
1.739619e-004 
1.742643e-004 
1.745110e-004 
1.747067e-004 
1.748642e-004 
1.749782e-004 
1.750405e-004 
1.750520e-004 
1.750205e-004 
1.749346e-004 
1.747975e-004 
1.746022e-004 
1.743278e-004 
1.000000e+000 
1.000000e+000 
1.466413e-004 
1.467937e-004 
1.469419e-004 
1.470472e-004 
1.471666e-004 
1.473186e-004 
1.474356e-004 
1.475289e-004 
1.476625e-004 
1.478039e-004 
1.478992e-004 
1.480065e-004 
1.481589e-004 
1.482880e-004 
1.483864e-004 
1.485300e-004 
1.486975e-004 
1.488219e-004 
1.489507e-004 
1.491354e-004 
1.493074e-004 
1.494416e-004 
1.496162e-004 
1.498269e-004 
1.499947e-004 
1.501538e-004 
1.503690e-004 
1.505805e-004 
1.507440e-004 
1.509344e-004 
1.511662e-004 
1.513578e-004 
1.515223e-004 
1.517338e-004 
1.519507e-004 
1.521124e-004 
1.522778e-004 
1.524839e-004 
1.526581e-004 
1.527847e-004 
1.529354e-004 
1.531011e-004 
1.532104e-004 
1.532880e-004 
1.533930e-004 
1.534816e-004 
1.535004e-004 
1.535013e-004 
1.535225e-004 
1.534956e-004 
1.533904e-004 
1.532831e-004 
1.531836e-004 
1.529997e-004 
1.527419e-004 
1.525086e-004 
1.522563e-004 
1.518854e-004 
1.514795e-004 
1.511255e-004 
1.507017e-004 
1.501600e-004 
1.496639e-004 
1.492145e-004 
1.486416e-004 
1.480258e-004 
1.475386e-004 
1.470400e-004 
1.464212e-004 
1.459005e-004 
1.455257e-004 
1.450664e-004 
1.445946e-004 
1.443460e-004 
1.441663e-004 
1.438990e-004 
1.437935e-004 
1.439201e-004 
1.440087e-004 
1.441203e-004 
1.445120e-004 
1.450148e-004 
1.454490e-004 
1.460618e-004 
1.469168e-004 
1.477331e-004 
1.485598e-004 
1.496340e-004 
1.507843e-004 
1.518342e-004 
1.530020e-004 
1.543371e-004 
1.555814e-004 
1.567716e-004 
1.581104e-004 
1.594499e-004 
1.606340e-004 
1.618445e-004 
1.631302e-004 
1.642790e-004 
1.653144e-004 
1.664120e-004 
1.674647e-004 
1.683414e-004 
1.691877e-004 
1.700649e-004 
1.708078e-004 
1.714246e-004 
1.720683e-004 
1.726749e-004 
1.731278e-004 
1.735389e-004 
1.739794e-004 
1.743232e-004 
1.745542e-004 
1.748068e-004 
1.750466e-004 
1.751648e-004 
1.752337e-004 
1.753354e-004 
1.753629e-004 
1.752832e-004 
1.751969e-004 
1.750916e-004 
1.748471e-004 
1.745427e-004 
1.000000e+000 
1.000000e+000 
1.464960e-004 
1.466173e-004 
1.467767e-004 
1.469588e-004 
1.470715e-004 
1.471786e-004 
1.473469e-004 
1.474827e-004 
1.475561e-004 
1.476858e-004 
1.478522e-004 
1.479414e-004 
1.480256e-004 
1.482003e-004 
1.483471e-004 
1.484185e-004 
1.485631e-004 
1.487709e-004 
1.488869e-004 
1.489897e-004 
1.492119e-004 
1.494147e-004 
1.495134e-004 
1.496923e-004 
1.499637e-004 
1.501259e-004 
1.502474e-004 
1.505139e-004 
1.507745e-004 
1.508932e-004 
1.510829e-004 
1.513995e-004 
1.515937e-004 
1.517058e-004 
1.519791e-004 
1.522715e-004 
1.523828e-004 
1.525391e-004 
1.528557e-004 
1.530485e-004 
1.531073e-004 
1.533270e-004 
1.535965e-004 
1.536514e-004 
1.537059e-004 
1.539414e-004 
1.540609e-004 
1.539909e-004 
1.540572e-004 
1.541988e-004 
1.541035e-004 
1.539513e-004 
1.539788e-004 
1.539055e-004 
1.536020e-004 
1.533959e-004 
1.532808e-004 
1.529337e-004 
1.524908e-004 
1.522153e-004 
1.518696e-004 
1.512999e-004 
1.508061e-004 
1.504215e-004 
1.498565e-004 
1.492127e-004 
1.487373e-004 
1.482480e-004 
1.476096e-004 
1.470693e-004 
1.466682e-004 
1.461849e-004 
1.457008e-004 
1.454033e-004 
1.451611e-004 
1.448878e-004 
1.447576e-004 
1.447870e-004 
1.448357e-004 
1.449668e-004 
1.452805e-004 
1.456858e-004 
1.461469e-004 
1.467544e-004 
1.474893e-004 
1.482822e-004 
1.491716e-004 
1.501755e-004 
1.512362e-004 
1.523522e-004 
1.535445e-004 
1.547729e-004 
1.560192e-004 
1.573014e-004 
1.585903e-004 
1.598574e-004 
1.611223e-004 
1.623720e-004 
1.635663e-004 
1.647198e-004 
1.658453e-004 
1.669024e-004 
1.678842e-004 
1.688256e-004 
1.697072e-004 
1.704977e-004 
1.712288e-004 
1.719176e-004 
1.725247e-004 
1.730558e-004 
1.735514e-004 
1.739942e-004 
1.743563e-004 
1.746769e-004 
1.749698e-004 
1.751979e-004 
1.753671e-004 
1.755192e-004 
1.756275e-004 
1.756684e-004 
1.756722e-004 
1.756488e-004 
1.755498e-004 
1.753956e-004 
1.752122e-004 
1.749403e-004 
1.000000e+000 
1.000000e+000 
1.463102e-004 
1.464883e-004 
1.466421e-004 
1.468206e-004 
1.469906e-004 
1.471120e-004 
1.472355e-004 
1.473932e-004 
1.475201e-004 
1.476110e-004 
1.477389e-004 
1.478888e-004 
1.479901e-004 
1.480894e-004 
1.482467e-004 
1.483948e-004 
1.484956e-004 
1.486375e-004 
1.488291e-004 
1.489763e-004 
1.491040e-004 
1.493039e-004 
1.495154e-004 
1.496653e-004 
1.498424e-004 
1.500914e-004 
1.503018e-004 
1.504664e-004 
1.507014e-004 
1.509724e-004 
1.511686e-004 
1.513641e-004 
1.516466e-004 
1.519066e-004 
1.520891e-004 
1.523257e-004 
1.526262e-004 
1.528474e-004 
1.530254e-004 
1.532954e-004 
1.535698e-004 
1.537326e-004 
1.539113e-004 
1.541807e-004 
1.543750e-004 
1.544658e-004 
1.546332e-004 
1.548390e-004 
1.548970e-004 
1.549064e-004 
1.550240e-004 
1.550810e-004 
1.549623e-004 
1.548838e-004 
1.548840e-004 
1.547118e-004 
1.544150e-004 
1.542406e-004 
1.540422e-004 
1.536123e-004 
1.531884e-004 
1.529015e-004 
1.524544e-004 
1.518353e-004 
1.513719e-004 
1.509566e-004 
1.503062e-004 
1.496666e-004 
1.492488e-004 
1.487323e-004 
1.480577e-004 
1.476028e-004 
1.472920e-004 
1.467998e-004 
1.463683e-004 
1.462451e-004 
1.461033e-004 
1.458611e-004 
1.458988e-004 
1.461469e-004 
1.462758e-004 
1.465097e-004 
1.470773e-004 
1.476618e-004 
1.481807e-004 
1.489693e-004 
1.499480e-004 
1.508172e-004 
1.517669e-004 
1.529762e-004 
1.541631e-004 
1.552553e-004 
1.565212e-004 
1.578841e-004 
1.590960e-004 
1.603058e-004 
1.616532e-004 
1.629141e-004 
1.640273e-004 
1.652046e-004 
1.663951e-004 
1.674060e-004 
1.683489e-004 
1.693471e-004 
1.702388e-004 
1.709689e-004 
1.717067e-004 
1.724372e-004 
1.730095e-004 
1.735005e-004 
1.740256e-004 
1.744760e-004 
1.747897e-004 
1.751008e-004 
1.754225e-004 
1.756317e-004 
1.757644e-004 
1.759313e-004 
1.760569e-004 
1.760670e-004 
1.760561e-004 
1.760653e-004 
1.759760e-004 
1.757807e-004 
1.755767e-004 
1.753543e-004 
1.000000e+000 
1.000000e+000 
1.461082e-004 
1.463677e-004 
1.465608e-004 
1.466928e-004 
1.468799e-004 
1.470747e-004 
1.471780e-004 
1.472878e-004 
1.474680e-004 
1.475947e-004 
1.476584e-004 
1.478005e-004 
1.479721e-004 
1.480508e-004 
1.481443e-004 
1.483403e-004 
1.484883e-004 
1.485641e-004 
1.487386e-004 
1.489671e-004 
1.490873e-004 
1.492179e-004 
1.494798e-004 
1.496973e-004 
1.498157e-004 
1.500440e-004 
1.503515e-004 
1.505305e-004 
1.506985e-004 
1.510248e-004 
1.513148e-004 
1.514707e-004 
1.517345e-004 
1.521086e-004 
1.523383e-004 
1.525233e-004 
1.528855e-004 
1.532300e-004 
1.534039e-004 
1.536668e-004 
1.540680e-004 
1.543183e-004 
1.544786e-004 
1.548144e-004 
1.551521e-004 
1.552866e-004 
1.554677e-004 
1.557950e-004 
1.559709e-004 
1.560068e-004 
1.561852e-004 
1.563739e-004 
1.563393e-004 
1.562963e-004 
1.563787e-004 
1.563177e-004 
1.560866e-004 
1.559486e-004 
1.558189e-004 
1.554818e-004 
1.551044e-004 
1.548209e-004 
1.544259e-004 
1.538885e-004 
1.534158e-004 
1.529597e-004 
1.523710e-004 
1.517715e-004 
1.512542e-004 
1.506956e-004 
1.500955e-004 
1.495769e-004 
1.491064e-004 
1.486303e-004 
1.482262e-004 
1.479146e-004 
1.476527e-004 
1.474801e-004 
1.474198e-004 
1.474369e-004 
1.475667e-004 
1.478342e-004 
1.481824e-004 
1.486325e-004 
1.492434e-004 
1.499451e-004 
1.507007e-004 
1.515999e-004 
1.526154e-004 
1.536392e-004 
1.547324e-004 
1.559514e-004 
1.571727e-004 
1.583661e-004 
1.596419e-004 
1.609469e-004 
1.621624e-004 
1.633673e-004 
1.646168e-004 
1.657827e-004 
1.668446e-004 
1.679188e-004 
1.689586e-004 
1.698581e-004 
1.706981e-004 
1.715417e-004 
1.722800e-004 
1.728973e-004 
1.735069e-004 
1.740814e-004 
1.745266e-004 
1.749156e-004 
1.753156e-004 
1.756369e-004 
1.758572e-004 
1.760821e-004 
1.762932e-004 
1.764023e-004 
1.764652e-004 
1.765500e-004 
1.765676e-004 
1.764870e-004 
1.764008e-004 
1.763043e-004 
1.760937e-004 
1.757954e-004 
1.000000e+000 
1.000000e+000 
1.459807e-004 
1.462087e-004 
1.464531e-004 
1.466540e-004 
1.468041e-004 
1.469782e-004 
1.471580e-004 
1.472751e-004 
1.473826e-004 
1.475438e-004 