# vtk DataFile Version 2.0
2D-ADE data file 
ASCII
DATASET RECTILINEAR_GRID
DIMENSIONS 128 128 1
X_COORDINATES 128 int
0 1 2 3 4 5 6 7 8 9 10 11 12 13 14 15 16 17 18 19 20 21 22 23 24 25 26 27 28 29 30 31 32 33 34 35 36 37 38 39 40 41 42 43 44 45 46 47 48 49 50 51 52 53 54 55 56 57 58 59 60 61 62 63 64 65 66 67 68 69 70 71 72 73 74 75 76 77 78 79 80 81 82 83 84 85 86 87 88 89 90 91 92 93 94 95 96 97 98 99 100 101 102 103 104 105 106 107 108 109 110 111 112 113 114 115 116 117 118 119 120 121 122 123 124 125 126 127 
Y_COORDINATES 128 int
0 1 2 3 4 5 6 7 8 9 10 11 12 13 14 15 16 17 18 19 20 21 22 23 24 25 26 27 28 29 30 31 32 33 34 35 36 37 38 39 40 41 42 43 44 45 46 47 48 49 50 51 52 53 54 55 56 57 58 59 60 61 62 63 64 65 66 67 68 69 70 71 72 73 74 75 76 77 78 79 80 81 82 83 84 85 86 87 88 89 90 91 92 93 94 95 96 97 98 99 100 101 102 103 104 105 106 107 108 109 110 111 112 113 114 115 116 117 118 119 120 121 122 123 124 125 126 127 
Z_COORDINATES 1 int
0
POINT_DATA 16384 
SCALARS density double 1
LOOKUP_TABLE default
1.000000e+000 
1.000000e+000 
1.000000e+000 
1.000000e+000 
1.000000e+000 
1.000000e+000 
1.000000e+000 
1.000000e+000 
1.000000e+000 
1.000000e+000 
1.000000e+000 
1.000000e+000 
1.000000e+000 
1.000000e+000 
1.000000e+000 
1.000000e+000 
1.000000e+000 
1.000000e+000 
1.000000e+000 
1.000000e+000 
1.000000e+000 
1.000000e+000 
1.000000e+000 
1.000000e+000 
1.000000e+000 
1.000000e+000 
1.000000e+000 
1.000000e+000 
1.000000e+000 
1.000000e+000 
1.000000e+000 
1.000000e+000 
1.000000e+000 
1.000000e+000 
1.000000e+000 
1.000000e+000 
1.000000e+000 
1.000000e+000 
1.000000e+000 
1.000000e+000 
1.000000e+000 
1.000000e+000 
1.000000e+000 
1.000000e+000 
1.000000e+000 
1.000000e+000 
1.000000e+000 
1.000000e+000 
1.000000e+000 
1.000000e+000 
1.000000e+000 
1.000000e+000 
1.000000e+000 
1.000000e+000 
1.000000e+000 
1.000000e+000 
1.000000e+000 
1.000000e+000 
1.000000e+000 
1.000000e+000 
1.000000e+000 
1.000000e+000 
1.000000e+000 
1.000000e+000 
1.000000e+000 
1.000000e+000 
1.000000e+000 
1.000000e+000 
1.000000e+000 
1.000000e+000 
1.000000e+000 
1.000000e+000 
1.000000e+000 
1.000000e+000 
1.000000e+000 
1.000000e+000 
1.000000e+000 
1.000000e+000 
1.000000e+000 
1.000000e+000 
1.000000e+000 
1.000000e+000 
1.000000e+000 
1.000000e+000 
1.000000e+000 
1.000000e+000 
1.000000e+000 
1.000000e+000 
1.000000e+000 
1.000000e+000 
1.000000e+000 
1.000000e+000 
1.000000e+000 
1.000000e+000 
1.000000e+000 
1.000000e+000 
1.000000e+000 
1.000000e+000 
1.000000e+000 
1.000000e+000 
1.000000e+000 
1.000000e+000 
1.000000e+000 
1.000000e+000 
1.000000e+000 
1.000000e+000 
1.000000e+000 
1.000000e+000 
1.000000e+000 
1.000000e+000 
1.000000e+000 
1.000000e+000 
1.000000e+000 
1.000000e+000 
1.000000e+000 
1.000000e+000 
1.000000e+000 
1.000000e+000 
1.000000e+000 
1.000000e+000 
1.000000e+000 
1.000000e+000 
1.000000e+000 
1.000000e+000 
1.000000e+000 
1.000000e+000 
1.000000e+000 
1.000000e+000 
1.000000e+000 
1.736436e-004 
1.728972e-004 
1.719409e-004 
1.710616e-004 
1.697117e-004 
1.680022e-004 
1.661941e-004 
1.641909e-004 
1.619833e-004 
1.597225e-004 
1.574421e-004 
1.550846e-004 
1.527700e-004 
1.505590e-004 
1.483973e-004 
1.462874e-004 
1.443469e-004 
1.425312e-004 
1.407620e-004 
1.390938e-004 
1.375907e-004 
1.361295e-004 
1.346697e-004 
1.333115e-004 
1.320438e-004 
1.307208e-004 
1.293965e-004 
1.281833e-004 
1.269826e-004 
1.257019e-004 
1.244987e-004 
1.234148e-004 
1.222872e-004 
1.211461e-004 
1.201732e-004 
1.192685e-004 
1.182940e-004 
1.174103e-004 
1.166994e-004 
1.159509e-004 
1.151638e-004 
1.145481e-004 
1.140158e-004 
1.133801e-004 
1.128146e-004 
1.124446e-004 
1.120524e-004 
1.116128e-004 
1.113814e-004 
1.112965e-004 
1.111448e-004 
1.110958e-004 
1.113151e-004 
1.115715e-004 
1.118004e-004 
1.122623e-004 
1.129085e-004 
1.134807e-004 
1.141162e-004 
1.149904e-004 
1.158608e-004 
1.166143e-004 
1.175017e-004 
1.184882e-004 
1.192948e-004 
1.200275e-004 
1.208781e-004 
1.216207e-004 
1.221231e-004 
1.226303e-004 
1.231452e-004 
1.234024e-004 
1.234950e-004 
1.236348e-004 
1.236425e-004 
1.233869e-004 
1.231085e-004 
1.228490e-004 
1.223778e-004 
1.217683e-004 
1.212389e-004 
1.206500e-004 
1.198720e-004 
1.191091e-004 
1.184223e-004 
1.176003e-004 
1.166832e-004 
1.158599e-004 
1.150233e-004 
1.140346e-004 
1.130587e-004 
1.121592e-004 
1.111636e-004 
1.100805e-004 
1.090829e-004 
1.080957e-004 
1.070016e-004 
1.059141e-004 
1.049096e-004 
1.038438e-004 
1.027029e-004 
1.015978e-004 
1.004918e-004 
9.925933e-005 
9.795827e-005 
9.663123e-005 
9.519415e-005 
9.358659e-005 
9.189221e-005 
9.009865e-005 
8.814566e-005 
8.604140e-005 
8.387951e-005 
8.162651e-005 
7.927699e-005 
7.690245e-005 
7.459063e-005 
7.228519e-005 
7.005844e-005 
6.803937e-005 
6.620897e-005 
6.448585e-005 
6.314027e-005 
6.225651e-005 
6.130381e-005 
6.056788e-005 
1.000000e+000 
1.000000e+000 
1.731039e-004 
1.727152e-004 
1.717543e-004 
1.707146e-004 
1.694263e-004 
1.678083e-004 
1.659779e-004 
1.639834e-004 
1.618481e-004 
1.596011e-004 
1.573312e-004 
1.550252e-004 
1.527462e-004 
1.505210e-004 
1.483878e-004 
1.463185e-004 
1.443668e-004 
1.425255e-004 
1.407927e-004 
1.391345e-004 
1.375829e-004 
1.361098e-004 
1.346947e-004 
1.333103e-004 
1.319868e-004 
1.306943e-004 
1.294108e-004 
1.281379e-004 
1.269145e-004 
1.257069e-004 
1.245070e-004 
1.233482e-004 
1.222569e-004 
1.211888e-004 
1.201567e-004 
1.192017e-004 
1.183148e-004 
1.174490e-004 
1.166390e-004 
1.159098e-004 
1.152201e-004 
1.145451e-004 
1.139397e-004 
1.134028e-004 
1.128856e-004 
1.124070e-004 
1.120272e-004 
1.117148e-004 
1.114396e-004 
1.112602e-004 
1.112107e-004 
1.112321e-004 
1.113282e-004 
1.115678e-004 
1.119309e-004 
1.123498e-004 
1.128662e-004 
1.135198e-004 
1.142351e-004 
1.149702e-004 
1.157906e-004 
1.166776e-004 
1.175322e-004 
1.183676e-004 
1.192407e-004 
1.200707e-004 
1.207897e-004 
1.214654e-004 
1.221080e-004 
1.226089e-004 
1.229755e-004 
1.232926e-004 
1.235066e-004 
1.235402e-004 
1.234791e-004 
1.233687e-004 
1.231159e-004 
1.227225e-004 
1.223034e-004 
1.218275e-004 
1.212177e-004 
1.205539e-004 
1.199076e-004 
1.191834e-004 
1.183708e-004 
1.175756e-004 
1.167823e-004 
1.158916e-004 
1.149716e-004 
1.140874e-004 
1.131580e-004 
1.121452e-004 
1.111593e-004 
1.101866e-004 
1.091449e-004 
1.080746e-004 
1.070612e-004 
1.060187e-004 
1.049200e-004 
1.038389e-004 
1.027824e-004 
1.016388e-004 
1.004533e-004 
9.926202e-005 
9.799921e-005 
9.659435e-005 
9.514006e-005 
9.359449e-005 
9.189249e-005 
9.004421e-005 
8.814086e-005 
8.608787e-005 
8.390142e-005 
8.164844e-005 
7.938749e-005 
7.703361e-005 
7.469862e-005 
7.244773e-005 
7.031297e-005 
6.825212e-005 
6.639922e-005 
6.480814e-005 
6.350550e-005 
6.242007e-005 
6.149173e-005 
6.113290e-005 
1.000000e+000 
1.000000e+000 
1.724956e-004 
1.722222e-004 
1.716867e-004 
1.705134e-004 
1.691417e-004 
1.676389e-004 
1.658109e-004 
1.638020e-004 
1.617277e-004 
1.595098e-004 
1.572114e-004 
1.549618e-004 
1.527278e-004 
1.504796e-004 
1.483427e-004 
1.463418e-004 
1.443841e-004 
1.425001e-004 
1.407911e-004 
1.391790e-004 
1.375770e-004 
1.360718e-004 
1.347030e-004 
1.333303e-004 
1.319369e-004 
1.306498e-004 
1.294244e-004 
1.281234e-004 
1.268427e-004 
1.256892e-004 
1.245279e-004 
1.233054e-004 
1.222017e-004 
1.212122e-004 
1.201639e-004 
1.191412e-004 
1.182994e-004 
1.174881e-004 
1.166093e-004 
1.158563e-004 
1.152473e-004 
1.145689e-004 
1.138886e-004 
1.133967e-004 
1.129473e-004 
1.124111e-004 
1.120028e-004 
1.117783e-004 
1.115121e-004 
1.112590e-004 
1.112448e-004 
1.113365e-004 
1.113755e-004 
1.115734e-004 
1.120077e-004 
1.124323e-004 
1.128658e-004 
1.135345e-004 
1.143058e-004 
1.149831e-004 
1.157507e-004 
1.166919e-004 
1.175500e-004 
1.183084e-004 
1.191864e-004 
1.200660e-004 
1.207392e-004 
1.213699e-004 
1.220589e-004 
1.225716e-004 
1.228811e-004 
1.232066e-004 
1.234691e-004 
1.234785e-004 
1.233888e-004 
1.233233e-004 
1.230912e-004 
1.226651e-004 
1.222577e-004 
1.218268e-004 
1.212069e-004 
1.205268e-004 
1.199130e-004 
1.192079e-004 
1.183717e-004 
1.175824e-004 
1.168163e-004 
1.159195e-004 
1.149835e-004 
1.141190e-004 
1.131995e-004 
1.121735e-004 
1.111868e-004 
1.102331e-004 
1.091869e-004 
1.081078e-004 
1.070975e-004 
1.060643e-004 
1.049537e-004 
1.038631e-004 
1.028026e-004 
1.016647e-004 
1.004613e-004 
9.925462e-005 
9.799251e-005 
9.660057e-005 
9.511910e-005 
9.356882e-005 
9.189163e-005 
9.005752e-005 
8.812510e-005 
8.610381e-005 
8.395751e-005 
8.170737e-005 
7.943754e-005 
7.714702e-005 
7.483377e-005 
7.258704e-005 
7.046966e-005 
6.844358e-005 
6.660682e-005 
6.507398e-005 
6.369113e-005 
6.253149e-005 
6.198569e-005 
6.169879e-005 
1.000000e+000 
1.000000e+000 
1.724397e-004 
1.720455e-004 
1.713191e-004 
1.702695e-004 
1.689759e-004 
1.674315e-004 
1.656453e-004 
1.636860e-004 
1.615932e-004 
1.594163e-004 
1.571716e-004 
1.549095e-004 
1.526744e-004 
1.504941e-004 
1.483621e-004 
1.463193e-004 
1.443898e-004 
1.425573e-004 
1.407973e-004 
1.391477e-004 
1.376028e-004 
1.361079e-004 
1.346538e-004 
1.332877e-004 
1.319670e-004 
1.306353e-004 
1.293361e-004 
1.281079e-004 
1.268752e-004 
1.256289e-004 
1.244558e-004 
1.233454e-004 
1.222160e-004 
1.211273e-004 
1.201520e-004 
1.192114e-004 
1.182627e-004 
1.174131e-004 
1.166641e-004 
1.159020e-004 
1.151644e-004 
1.145550e-004 
1.139884e-004 
1.133903e-004 
1.128807e-004 
1.124975e-004 
1.121078e-004 
1.117388e-004 
1.115332e-004 
1.114237e-004 
1.113048e-004 
1.113060e-004 
1.114979e-004 
1.117292e-004 
1.119917e-004 
1.124460e-004 
1.130290e-004 
1.135887e-004 
1.142316e-004 
1.150470e-004 
1.158593e-004 
1.166136e-004 
1.174733e-004 
1.183885e-004 
1.191707e-004 
1.199055e-004 
1.207084e-004 
1.214079e-004 
1.219206e-004 
1.224229e-004 
1.229006e-004 
1.231616e-004 
1.232828e-004 
1.234172e-004 
1.234225e-004 
1.232073e-004 
1.229580e-004 
1.227036e-004 
1.222624e-004 
1.216996e-004 
1.211873e-004 
1.206129e-004 
1.198709e-004 
1.191340e-004 
1.184495e-004 
1.176434e-004 
1.167482e-004 
1.159297e-004 
1.150928e-004 
1.141209e-004 
1.131548e-004 
1.122571e-004 
1.112680e-004 
1.101997e-004 
1.092041e-004 
1.082185e-004 
1.071236e-004 
1.060356e-004 
1.050184e-004 
1.039372e-004 
1.027722e-004 
1.016519e-004 
1.005171e-004 
9.925268e-005 
9.792634e-005 
9.659480e-005 
9.513039e-005 
9.351262e-005 
9.183465e-005 
9.006791e-005 
8.811680e-005 
8.606408e-005 
8.396745e-005 
8.176806e-005 
7.946689e-005 
7.719658e-005 
7.495488e-005 
7.271791e-005 
7.057527e-005 
6.863047e-005 
6.682830e-005 
6.522871e-005 
6.393279e-005 
6.291513e-005 
6.216360e-005 
6.175044e-005 
1.000000e+000 
1.000000e+000 
1.721562e-004 
1.717090e-004 
1.709809e-004 
1.700849e-004 
1.688114e-004 
1.671997e-004 
1.654771e-004 
1.635816e-004 
1.614726e-004 
1.593162e-004 
1.571383e-004 
1.548820e-004 
1.526374e-004 
1.505012e-004 
1.484011e-004 
1.463320e-004 
1.444019e-004 
1.426053e-004 
1.408388e-004 
1.391500e-004 
1.376139e-004 
1.361407e-004 
1.346554e-004 
1.332578e-004 
1.319632e-004 
1.306413e-004 
1.293016e-004 
1.280695e-004 
1.268784e-004 
1.256223e-004 
1.244151e-004 
1.233340e-004 
1.222369e-004 
1.211139e-004 
1.201272e-004 
1.192314e-004 
1.182821e-004 
1.173916e-004 
1.166627e-004 
1.159366e-004 
1.151705e-004 
1.145436e-004 
1.140218e-004 
1.134368e-004 
1.128955e-004 
1.125309e-004 
1.121864e-004 
1.118053e-004 
1.115833e-004 
1.115117e-004 
1.114122e-004 
1.113839e-004 
1.115764e-004 
1.118374e-004 
1.120858e-004 
1.125080e-004 
1.130998e-004 
1.136661e-004 
1.142752e-004 
1.150675e-004 
1.158875e-004 
1.166295e-004 
1.174540e-004 
1.183579e-004 
1.191450e-004 
1.198607e-004 
1.206371e-004 
1.213370e-004 
1.218557e-004 
1.223401e-004 
1.228034e-004 
1.230788e-004 
1.232088e-004 
1.233274e-004 
1.233344e-004 
1.231470e-004 
1.229027e-004 
1.226350e-004 
1.222144e-004 
1.216814e-004 
1.211598e-004 
1.205797e-004 
1.198714e-004 
1.191468e-004 
1.184392e-004 
1.176430e-004 
1.167798e-004 
1.159475e-004 
1.150907e-004 
1.141469e-004 
1.131959e-004 
1.122684e-004 
1.112814e-004 
1.102468e-004 
1.092392e-004 
1.082262e-004 
1.071554e-004 
1.060805e-004 
1.050261e-004 
1.039362e-004 
1.027974e-004 
1.016519e-004 
1.004795e-004 
9.923325e-005 
9.791124e-005 
9.653279e-005 
9.506814e-005 
9.348325e-005 
9.178194e-005 
8.999197e-005 
8.808920e-005 
8.605613e-005 
8.393242e-005 
8.176426e-005 
7.952602e-005 
7.724889e-005 
7.501239e-005 
7.283783e-005 
7.072539e-005 
6.878194e-005 
6.702337e-005 
6.542639e-005 
6.413975e-005 
6.320672e-005 
6.249864e-005 
6.208589e-005 
1.000000e+000 
1.000000e+000 
1.717989e-004 
1.715096e-004 
1.708247e-004 
1.698175e-004 
1.685499e-004 
1.670527e-004 
1.653343e-004 
1.634278e-004 
1.613965e-004 
1.592567e-004 
1.570592e-004 
1.548654e-004 
1.526710e-004 
1.504888e-004 
1.483973e-004 
1.464040e-004 
1.444566e-004 
1.425932e-004 
1.408746e-004 
1.392336e-004 
1.376175e-004 
1.361049e-004 
1.347040e-004 
1.332982e-004 
1.318997e-004 
1.306103e-004 
1.293600e-004 
1.280519e-004 
1.267939e-004 
1.256461e-004 
1.244729e-004 
1.232706e-004 
1.221954e-004 
1.211993e-004 
1.201466e-004 
1.191512e-004 
1.183179e-004 
1.174883e-004 
1.166182e-004 
1.158918e-004 
1.152797e-004 
1.145982e-004 
1.139519e-004 
1.134901e-004 
1.130456e-004 
1.125356e-004 
1.121759e-004 
1.119750e-004 
1.117185e-004 
1.114991e-004 
1.115152e-004 
1.116038e-004 
1.116390e-004 
1.118485e-004 
1.122733e-004 
1.126630e-004 
1.130726e-004 
1.137236e-004 
1.144521e-004 
1.150769e-004 
1.158109e-004 
1.167182e-004 
1.175212e-004 
1.182305e-004 
1.190822e-004 
1.199288e-004 
1.205544e-004 
1.211585e-004 
1.218416e-004 
1.223327e-004 
1.226171e-004 
1.229506e-004 
1.232284e-004 
1.232306e-004 
1.231480e-004 
1.231222e-004 
1.229140e-004 
1.224930e-004 
1.221215e-004 
1.217388e-004 
1.211311e-004 
1.204632e-004 
1.198946e-004 
1.192159e-004 
1.183720e-004 
1.176008e-004 
1.168692e-004 
1.159683e-004 
1.150213e-004 
1.141849e-004 
1.132818e-004 
1.122371e-004 
1.112559e-004 
1.103327e-004 
1.092785e-004 
1.081787e-004 
1.071839e-004 
1.061555e-004 
1.050050e-004 
1.038944e-004 
1.028363e-004 
1.016600e-004 
1.004036e-004 
9.918937e-005 
9.790967e-005 
9.646495e-005 
9.496692e-005 
9.343638e-005 
9.174205e-005 
8.989978e-005 
8.801774e-005 
8.604044e-005 
8.390876e-005 
8.172554e-005 
7.954721e-005 
7.730856e-005 
7.505952e-005 
7.292046e-005 
7.087545e-005 
6.891135e-005 
6.716931e-005 
6.568624e-005 
6.439922e-005 
6.335916e-005 
6.269434e-005 
6.243591e-005 
1.000000e+000 
1.000000e+000 
1.714814e-004 
1.711828e-004 
1.705726e-004 
1.695709e-004 
1.683477e-004 
1.669130e-004 
1.651815e-004 
1.632822e-004 
1.613198e-004 
1.592160e-004 
1.570134e-004 
1.548437e-004 
1.526956e-004 
1.505249e-004 
1.484237e-004 
1.464463e-004 
1.445232e-004 
1.426482e-004 
1.409062e-004 
1.392750e-004 
1.376699e-004 
1.361256e-004 
1.347008e-004 
1.333167e-004 
1.319190e-004 
1.305891e-004 
1.293399e-004 
1.280682e-004 
1.267938e-004 
1.256152e-004 
1.244763e-004 
1.233021e-004 
1.221901e-004 
1.211878e-004 
1.201846e-004 
1.191854e-004 
1.183086e-004 
1.175043e-004 
1.166755e-004 
1.159135e-004 
1.152787e-004 
1.146522e-004 
1.140227e-004 
1.135145e-004 
1.130897e-004 
1.126443e-004 
1.122667e-004 
1.120320e-004 
1.118327e-004 
1.116517e-004 
1.116149e-004 
1.116983e-004 
1.117995e-004 
1.119923e-004 
1.123497e-004 
1.127689e-004 
1.132176e-004 
1.137972e-004 
1.144800e-004 
1.151593e-004 
1.158801e-004 
1.166939e-004 
1.175027e-004 
1.182631e-004 
1.190476e-004 
1.198278e-004 
1.205116e-004 
1.211290e-004 
1.217196e-004 
1.222103e-004 
1.225724e-004 
1.228649e-004 
1.230746e-004 
1.231458e-004 
1.231114e-004 
1.230082e-004 
1.227978e-004 
1.224751e-004 
1.220889e-004 
1.216373e-004 
1.210959e-004 
1.204939e-004 
1.198550e-004 
1.191587e-004 
1.184087e-004 
1.176314e-004 
1.168209e-004 
1.159664e-004 
1.150855e-004 
1.141824e-004 
1.132459e-004 
1.122839e-004 
1.113060e-004 
1.103032e-004 
1.092795e-004 
1.082448e-004 
1.071914e-004 
1.061168e-004 
1.050317e-004 
1.039239e-004 
1.027820e-004 
1.016140e-004 
1.004080e-004 
9.913526e-005 
9.780356e-005 
9.640985e-005 
9.491507e-005 
9.331601e-005 
9.163915e-005 
8.985199e-005 
8.793563e-005 
8.594029e-005 
8.387938e-005 
8.171823e-005 
7.951111e-005 
7.732326e-005 
7.513872e-005 
7.298556e-005 
7.096338e-005 
6.907646e-005 
6.734004e-005 
6.584187e-005 
6.461107e-005 
6.364981e-005 
6.302062e-005 
6.269807e-005 
1.000000e+000 
1.000000e+000 
1.712898e-004 
1.709452e-004 
1.702949e-004 
1.693862e-004 
1.681731e-004 
1.666984e-004 
1.650473e-004 
1.632158e-004 
1.612150e-004 
1.591448e-004 
1.570321e-004 
1.548466e-004 
1.526732e-004 
1.505833e-004 
1.485135e-004 
1.464671e-004 
1.445570e-004 
1.427599e-004 
1.409733e-004 
1.392671e-004 
1.377226e-004 
1.362171e-004 
1.346913e-004 
1.332828e-004 
1.319824e-004 
1.306253e-004 
1.292712e-004 
1.280626e-004 
1.268723e-004 
1.255964e-004 
1.244139e-004 
1.233683e-004 
1.222597e-004 
1.211316e-004 
1.201858e-004 
1.193026e-004 
1.183252e-004 
1.174483e-004 
1.167599e-004 
1.160217e-004 
1.152403e-004 
1.146616e-004 
1.141778e-004 
1.135783e-004 
1.130643e-004 
1.127750e-004 
1.124509e-004 
1.120632e-004 
1.119010e-004 
1.118854e-004 
1.117633e-004 
1.117310e-004 
1.119758e-004 
1.122270e-004 
1.124093e-004 
1.128292e-004 
1.134313e-004 
1.139176e-004 
1.144518e-004 
1.152468e-004 
1.160236e-004 
1.166536e-004 
1.174373e-004 
1.183433e-004 
1.190462e-004 
1.196745e-004 
1.204627e-004 
1.211502e-004 
1.215792e-004 
1.220446e-004 
1.225562e-004 
1.227984e-004 
1.228778e-004 
1.230522e-004 
1.231065e-004 
1.228777e-004 
1.226497e-004 
1.224744e-004 
1.220659e-004 
1.215058e-004 
1.210548e-004 
1.205425e-004 
1.198023e-004 
1.190821e-004 
1.184550e-004 
1.176638e-004 
1.167538e-004 
1.159620e-004 
1.151559e-004 
1.141684e-004 
1.131997e-004 
1.123332e-004 
1.113494e-004 
1.102614e-004 
1.092770e-004 
1.083047e-004 
1.071863e-004 
1.060713e-004 
1.050490e-004 
1.039396e-004 
1.027208e-004 
1.015575e-004 
1.003921e-004 
9.907425e-005 
9.769234e-005 
9.632783e-005 
9.484617e-005 
9.320096e-005 
9.151337e-005 
8.976820e-005 
8.785695e-005 
8.583801e-005 
8.380364e-005 
8.169363e-005 
7.948862e-005 
7.730619e-005 
7.518103e-005 
7.306309e-005 
7.103395e-005 
6.919775e-005 
6.752146e-005 
6.601330e-005 
6.479676e-005 
6.389602e-005 
6.323812e-005 
6.289705e-005 
1.000000e+000 
1.000000e+000 
1.709942e-004 
1.706587e-004 
1.700552e-004 
1.691839e-004 
1.679867e-004 
1.665273e-004 
1.649198e-004 
1.631297e-004 
1.611467e-004 
1.590950e-004 
1.570198e-004 
1.548760e-004 
1.527120e-004 
1.506169e-004 
1.485778e-004 
1.465633e-004 
1.446264e-004 
1.428076e-004 
1.410586e-004 
1.393555e-004 
1.377490e-004 
1.362407e-004 
1.347621e-004 
1.333158e-004 
1.319554e-004 
1.306446e-004 
1.293249e-004 
1.280457e-004 
1.268432e-004 
1.256499e-004 
1.244547e-004 
1.233358e-004 
1.222797e-004 
1.212195e-004 
1.202022e-004 
1.192847e-004 
1.184036e-004 
1.175321e-004 
1.167470e-004 
1.160485e-004 
1.153621e-004 
1.147166e-004 
1.141751e-004 
1.136878e-004 
1.132134e-004 
1.128185e-004 
1.125239e-004 
1.122646e-004 
1.120506e-004 
1.119494e-004 
1.119374e-004 
1.119669e-004 
1.120836e-004 
1.123237e-004 
1.126357e-004 
1.130005e-004 
1.134682e-004 
1.140336e-004 
1.146365e-004 
1.152807e-004 
1.160008e-004 
1.167576e-004 
1.174975e-004 
1.182416e-004 
1.190044e-004 
1.197259e-004 
1.203730e-004 
1.209844e-004 
1.215527e-004 
1.220112e-004 
1.223645e-004 
1.226629e-004 
1.228701e-004 
1.229358e-004 
1.229115e-004 
1.228334e-004 
1.226385e-004 
1.223205e-004 
1.219595e-004 
1.215458e-004 
1.210139e-004 
1.204149e-004 
1.198119e-004 
1.191418e-004 
1.183778e-004 
1.176074e-004 
1.168336e-004 
1.159753e-004 
1.150699e-004 
1.141916e-004 
1.132787e-004 
1.122868e-004 
1.113010e-004 
1.103360e-004 
1.093040e-004 
1.082293e-004 
1.071917e-004 
1.061340e-004 
1.049978e-004 
1.038602e-004 
1.027381e-004 
1.015362e-004 
1.002635e-004 
9.899259e-005 
9.765994e-005 
9.620076e-005 
9.468419e-005 
9.312020e-005 
9.141746e-005 
8.959928e-005 
8.773861e-005 
8.578171e-005 
8.370111e-005 
8.159442e-005 
7.947911e-005 
7.730808e-005 
7.515973e-005 
7.311722e-005 
7.114751e-005 
6.928432e-005 
6.763768e-005 
6.621769e-005 
6.500315e-005 
6.407381e-005 
6.350402e-005 
6.322275e-005 
1.000000e+000 
1.000000e+000 
1.707202e-004 
1.704810e-004 
1.698632e-004 
1.689308e-004 
1.677971e-004 
1.664285e-004 
1.647896e-004 
1.629966e-004 
1.611213e-004 
1.590994e-004 
1.569778e-004 
1.548914e-004 
1.528081e-004 
1.506723e-004 
1.486083e-004 
1.466742e-004 
1.447498e-004 
1.428498e-004 
1.411155e-004 
1.394807e-004 
1.378156e-004 
1.362356e-004 
1.348219e-004 
1.334025e-004 
1.319417e-004 
1.306238e-004 
1.293998e-004 
1.280824e-004 
1.267929e-004 
1.256778e-004 
1.245489e-004 
1.233309e-004 
1.222576e-004 
1.213190e-004 
1.202801e-004 
1.192552e-004 
1.184496e-004 
1.176647e-004 
1.167731e-004 
1.160381e-004 
1.154859e-004 
1.148342e-004 
1.141749e-004 
1.137637e-004 
1.134013e-004 
1.129101e-004 
1.125731e-004 
1.124598e-004 
1.122574e-004 
1.120326e-004 
1.120845e-004 
1.122280e-004 
1.122429e-004 
1.124145e-004 
1.128494e-004 
1.132142e-004 
1.135361e-004 
1.141310e-004 
1.148256e-004 
1.153571e-004 
1.159861e-004 
1.168395e-004 
1.175734e-004 
1.181726e-004 
1.189506e-004 
1.197560e-004 
1.203067e-004 
1.208372e-004 
1.214969e-004 
1.219643e-004 
1.222037e-004 
1.225263e-004 
1.228226e-004 
1.228250e-004 
1.227479e-004 
1.227626e-004 
1.225933e-004 
1.221965e-004 
1.218680e-004 
1.215387e-004 
1.209654e-004 
1.203296e-004 
1.198037e-004 
1.191552e-004 
1.183278e-004 
1.175784e-004 
1.168653e-004 
1.159699e-004 
1.150302e-004 
1.142044e-004 
1.133035e-004 
1.122604e-004 
1.112858e-004 
1.103622e-004 
1.093014e-004 
1.081975e-004 
1.071903e-004 
1.061361e-004 
1.049576e-004 
1.038136e-004 
1.027068e-004 
1.014785e-004 
1.001722e-004 
9.890156e-005 
9.756625e-005 
9.608029e-005 
9.454582e-005 
9.298699e-005 
9.128881e-005 
8.945990e-005 
8.759762e-005 
8.566782e-005 
8.360974e-005 
8.150201e-005 
7.941185e-005 
7.729334e-005 
7.516245e-005 
7.312950e-005 
7.121773e-005 
6.939845e-005 
6.774946e-005 
6.636058e-005 
6.521041e-005 
6.428003e-005 
6.366430e-005 
6.343242e-005 
1.000000e+000 
1.000000e+000 
1.704726e-004 
1.701989e-004 
1.696358e-004 
1.687565e-004 
1.676271e-004 
1.662753e-004 
1.646890e-004 
1.629259e-004 
1.610588e-004 
1.590848e-004 
1.570147e-004 
1.549191e-004 
1.528440e-004 
1.507757e-004 
1.487195e-004 
1.467331e-004 
1.448405e-004 
1.429969e-004 
1.412008e-004 
1.395133e-004 
1.379190e-004 
1.363457e-004 
1.348251e-004 
1.334140e-004 
1.320429e-004 
1.306612e-004 
1.293516e-004 
1.281280e-004 
1.268902e-004 
1.256576e-004 
1.245277e-004 
1.234444e-004 
1.223303e-004 
1.212782e-004 
1.203392e-004 
1.194038e-004 
1.184664e-004 
1.176486e-004 
1.169161e-004 
1.161601e-004 
1.154605e-004 
1.149034e-004 
1.143767e-004 
1.138348e-004 
1.134128e-004 
1.131102e-004 
1.127903e-004 
1.125076e-004 
1.123879e-004 
1.123332e-004 
1.122559e-004 
1.122954e-004 
1.124957e-004 
1.127007e-004 
1.129256e-004 
1.133250e-004 
1.138212e-004 
1.142761e-004 
1.148093e-004 
1.155006e-004 
1.161757e-004 
1.167933e-004 
1.175195e-004 
1.183017e-004 
1.189567e-004 
1.195750e-004 
1.202755e-004 
1.208871e-004 
1.213250e-004 
1.217695e-004 
1.222132e-004 
1.224569e-004 
1.225720e-004 
1.227229e-004 
1.227675e-004 
1.225960e-004 
1.223983e-004 
1.222160e-004 
1.218511e-004 
1.213520e-004 
1.209094e-004 
1.204112e-004 
1.197257e-004 
1.190294e-004 
1.183939e-004 
1.176273e-004 
1.167467e-004 
1.159439e-004 
1.151336e-004 
1.141700e-004 
1.132023e-004 
1.123194e-004 
1.113448e-004 
1.102665e-004 
1.092646e-004 
1.082801e-004 
1.071613e-004 
1.060250e-004 
1.049684e-004 
1.038332e-004 
1.025810e-004 
1.013700e-004 
1.001601e-004 
9.879943e-005 
9.737242e-005 
9.597124e-005 
9.445858e-005 
9.278807e-005 
9.109681e-005 
8.936052e-005 
8.745875e-005 
8.547502e-005 
8.350180e-005 
8.144576e-005 
7.930470e-005 
7.721945e-005 
7.518818e-005 
7.315195e-005 
7.122356e-005 
6.949400e-005 
6.790368e-005 
6.647309e-005 
6.534084e-005 
6.451659e-005 
6.392705e-005 
6.361838e-005 
1.000000e+000 
1.000000e+000 
1.702882e-004 
1.699792e-004 
1.694136e-004 
1.686067e-004 
1.674741e-004 
1.661012e-004 
1.645999e-004 
1.629031e-004 
1.609998e-004 
1.590473e-004 
1.570776e-004 
1.549921e-004 
1.528742e-004 
1.508604e-004 
1.488671e-004 
1.468334e-004 
1.449108e-004 
1.431309e-004 
1.413387e-004 
1.395717e-004 
1.379821e-004 
1.364651e-004 
1.348926e-004 
1.334168e-004 
1.321008e-004 
1.307454e-004 
1.293544e-004 
1.281281e-004 
1.269734e-004 
1.257131e-004 
1.245163e-004 
1.234995e-004 
1.224390e-004 
1.213091e-004 
1.203595e-004 
1.195185e-004 
1.185622e-004 
1.176650e-004 
1.169924e-004 
1.163003e-004 
1.155249e-004 
1.149489e-004 
1.145227e-004 
1.139793e-004 
1.134842e-004 
1.132425e-004 
1.130006e-004 
1.126586e-004 
1.125193e-004 
1.125596e-004 
1.124865e-004 
1.124513e-004 
1.126895e-004 
1.129523e-004 
1.131099e-004 
1.134659e-004 
1.140177e-004 
1.144557e-004 
1.149022e-004 
1.155974e-004 
1.162977e-004 
1.168449e-004 
1.175197e-004 
1.183288e-004 
1.189615e-004 
1.195111e-004 
1.202100e-004 
1.208368e-004 
1.212299e-004 
1.216478e-004 
1.221148e-004 
1.223514e-004 
1.224395e-004 
1.226047e-004 
1.226669e-004 
1.224846e-004 
1.222940e-004 
1.221356e-004 
1.217739e-004 
1.212802e-004 
1.208593e-004 
1.203677e-004 
1.196831e-004 
1.190052e-004 
1.183764e-004 
1.176009e-004 
1.167319e-004 
1.159412e-004 
1.151158e-004 
1.141505e-004 
1.132024e-004 
1.123106e-004 
1.113179e-004 
1.102565e-004 
1.092613e-004 
1.082484e-004 
1.071268e-004 
1.060077e-004 
1.049263e-004 
1.037612e-004 
1.025198e-004 
1.012994e-004 
1.000450e-004 
9.867609e-005 
9.725671e-005 
9.582006e-005 
9.428382e-005 
9.263267e-005 
9.093295e-005 
8.917198e-005 
8.729571e-005 
8.533650e-005 
8.335011e-005 
8.131909e-005 
7.923158e-005 
7.715217e-005 
7.513450e-005 
7.316728e-005 
7.127266e-005 
6.953449e-005 
6.799468e-005 
6.663521e-005 
6.549525e-005 
6.465306e-005 
6.410395e-005 
6.383193e-005 
1.000000e+000 
1.000000e+000 
1.700326e-004 
1.697726e-004 
1.692231e-004 
1.684029e-004 
1.673325e-004 
1.660138e-004 
1.644910e-004 
1.628206e-004 
1.610108e-004 
1.590711e-004 
1.570715e-004 
1.550599e-004 
1.530100e-004 
1.509396e-004 
1.489388e-004 
1.470043e-004 
1.450674e-004 
1.431893e-004 
1.414486e-004 
1.397548e-004 
1.380573e-004 
1.364779e-004 
1.350193e-004 
1.335369e-004 
1.320756e-004 
1.307651e-004 
1.294960e-004 
1.281633e-004 
1.269195e-004 
1.258110e-004 
1.246544e-004 
1.234718e-004 
1.224488e-004 
1.214913e-004 
1.204447e-004 
1.194739e-004 
1.186822e-004 
1.178626e-004 
1.169953e-004 
1.163111e-004 
1.157464e-004 
1.150901e-004 
1.144961e-004 
1.141269e-004 
1.137602e-004 
1.133162e-004 
1.130578e-004 
1.129647e-004 
1.127736e-004 
1.126109e-004 
1.127004e-004 
1.128255e-004 
1.128439e-004 
1.130367e-004 
1.134394e-004 
1.137485e-004 
1.140447e-004 
1.145992e-004 
1.152112e-004 
1.156693e-004 
1.162442e-004 
1.170202e-004 
1.176632e-004 
1.181933e-004 
1.189105e-004 
1.196432e-004 
1.201262e-004 
1.206095e-004 
1.212309e-004 
1.216583e-004 
1.218656e-004 
1.221778e-004 
1.224757e-004 
1.224736e-004 
1.224006e-004 
1.224463e-004 
1.223081e-004 
1.219254e-004 
1.216287e-004 
1.213516e-004 
1.208049e-004 
1.201813e-004 
1.196967e-004 
1.190851e-004 
1.182544e-004 
1.175121e-004 
1.168338e-004 
1.159406e-004 
1.149790e-004 
1.141692e-004 
1.132884e-004 
1.122204e-004 
1.112327e-004 
1.103334e-004 
1.092635e-004 
1.081191e-004 
1.071096e-004 
1.060558e-004 
1.048234e-004 
1.036313e-004 
1.025132e-004 
1.012364e-004 
9.985056e-005 
9.854532e-005 
9.718441e-005 
9.562833e-005 
9.404894e-005 
9.249677e-005 
9.077999e-005 
8.892440e-005 
8.710047e-005 
8.522162e-005 
8.318204e-005 
8.113430e-005 
7.915040e-005 
7.710562e-005 
7.504487e-005 
7.313351e-005 
7.133590e-005 
6.958929e-005 
6.803563e-005 
6.676022e-005 
6.567042e-005 
6.479204e-005 
6.427560e-005 
6.407154e-005 
1.000000e+000 
1.000000e+000 
1.698061e-004 
1.696123e-004 
1.690658e-004 
1.682092e-004 
1.671794e-004 
1.659394e-004 
1.644180e-004 
1.627413e-004 
1.610082e-004 
1.591265e-004 
1.571046e-004 
1.551082e-004 
1.531360e-004 
1.510792e-004 
1.490354e-004 
1.471267e-004 
1.452433e-004 
1.433281e-004 
1.415378e-004 
1.398836e-004 
1.382039e-004 
1.365513e-004 
1.350714e-004 
1.336450e-004 
1.321605e-004 
1.307800e-004 
1.295457e-004 
1.282633e-004 
1.269622e-004 
1.258274e-004 
1.247469e-004 
1.235728e-004 
1.224823e-004 
1.215554e-004 
1.205779e-004 
1.195616e-004 
1.187280e-004 
1.179788e-004 
1.171355e-004 
1.163820e-004 
1.158299e-004 
1.152512e-004 
1.146342e-004 
1.142185e-004 
1.139163e-004 
1.135240e-004 
1.132164e-004 
1.131225e-004 
1.130115e-004 
1.128524e-004 
1.128884e-004 
1.130465e-004 
1.131179e-004 
1.132648e-004 
1.136237e-004 
1.139747e-004 
1.142753e-004 
1.147525e-004 
1.153401e-004 
1.158324e-004 
1.163659e-004 
1.170598e-004 
1.177066e-004 
1.182557e-004 
1.189000e-004 
1.195743e-004 
1.200936e-004 
1.205729e-004 
1.211105e-004 
1.215296e-004 
1.217946e-004 
1.220708e-004 
1.223044e-004 
1.223548e-004 
1.223300e-004 
1.223106e-004 
1.221603e-004 
1.218691e-004 
1.215737e-004 
1.212274e-004 
1.207327e-004 
1.201862e-004 
1.196428e-004 
1.189972e-004 
1.182577e-004 
1.175280e-004 
1.167627e-004 
1.158983e-004 
1.150164e-004 
1.141470e-004 
1.132099e-004 
1.122225e-004 
1.112552e-004 
1.102627e-004 
1.092040e-004 
1.081388e-004 
1.070738e-004 
1.059482e-004 
1.047790e-004 
1.036055e-004 
1.023863e-004 
1.010972e-004 
9.977523e-005 
9.841300e-005 
9.697180e-005 
9.546405e-005 
9.390380e-005 
9.226627e-005 
9.054693e-005 
8.876149e-005 
8.690712e-005 
8.498847e-005 
8.302246e-005 
8.101505e-005 
7.899123e-005 
7.698990e-005 
7.501846e-005 
7.309785e-005 
7.129810e-005 
6.964778e-005 
6.813520e-005 
6.682271e-005 
6.578353e-005 
6.498151e-005 
6.441094e-005 
6.418321e-005 
1.000000e+000 
1.000000e+000 
1.696335e-004 
1.693666e-004 
1.688693e-004 
1.681087e-004 
1.670542e-004 
1.657898e-004 
1.643733e-004 
1.627555e-004 
1.609672e-004 
1.591270e-004 