# vtk DataFile Version 2.0
2D-ADE data file 
ASCII
DATASET RECTILINEAR_GRID
DIMENSIONS 128 128 1
X_COORDINATES 128 int
0 1 2 3 4 5 6 7 8 9 10 11 12 13 14 15 16 17 18 19 20 21 22 23 24 25 26 27 28 29 30 31 32 33 34 35 36 37 38 39 40 41 42 43 44 45 46 47 48 49 50 51 52 53 54 55 56 57 58 59 60 61 62 63 64 65 66 67 68 69 70 71 72 73 74 75 76 77 78 79 80 81 82 83 84 85 86 87 88 89 90 91 92 93 94 95 96 97 98 99 100 101 102 103 104 105 106 107 108 109 110 111 112 113 114 115 116 117 118 119 120 121 122 123 124 125 126 127 
Y_COORDINATES 128 int
0 1 2 3 4 5 6 7 8 9 10 11 12 13 14 15 16 17 18 19 20 21 22 23 24 25 26 27 28 29 30 31 32 33 34 35 36 37 38 39 40 41 42 43 44 45 46 47 48 49 50 51 52 53 54 55 56 57 58 59 60 61 62 63 64 65 66 67 68 69 70 71 72 73 74 75 76 77 78 79 80 81 82 83 84 85 86 87 88 89 90 91 92 93 94 95 96 97 98 99 100 101 102 103 104 105 106 107 108 109 110 111 112 113 114 115 116 117 118 119 120 121 122 123 124 125 126 127 
Z_COORDINATES 1 int
0
POINT_DATA 16384 
SCALARS density double 1
LOOKUP_TABLE default
1.000000e+000 
1.000000e+000 
1.000000e+000 
1.000000e+000 
1.000000e+000 
1.000000e+000 
1.000000e+000 
1.000000e+000 
1.000000e+000 
1.000000e+000 
1.000000e+000 
1.000000e+000 
1.000000e+000 
1.000000e+000 
1.000000e+000 
1.000000e+000 
1.000000e+000 
1.000000e+000 
1.000000e+000 
1.000000e+000 
1.000000e+000 
1.000000e+000 
1.000000e+000 
1.000000e+000 
1.000000e+000 
1.000000e+000 
1.000000e+000 
1.000000e+000 
1.000000e+000 
1.000000e+000 
1.000000e+000 
1.000000e+000 
1.000000e+000 
1.000000e+000 
1.000000e+000 
1.000000e+000 
1.000000e+000 
1.000000e+000 
1.000000e+000 
1.000000e+000 
1.000000e+000 
1.000000e+000 
1.000000e+000 
1.000000e+000 
1.000000e+000 
1.000000e+000 
1.000000e+000 
1.000000e+000 
1.000000e+000 
1.000000e+000 
1.000000e+000 
1.000000e+000 
1.000000e+000 
1.000000e+000 
1.000000e+000 
1.000000e+000 
1.000000e+000 
1.000000e+000 
1.000000e+000 
1.000000e+000 
1.000000e+000 
1.000000e+000 
1.000000e+000 
1.000000e+000 
1.000000e+000 
1.000000e+000 
1.000000e+000 
1.000000e+000 
1.000000e+000 
1.000000e+000 
1.000000e+000 
1.000000e+000 
1.000000e+000 
1.000000e+000 
1.000000e+000 
1.000000e+000 
1.000000e+000 
1.000000e+000 
1.000000e+000 
1.000000e+000 
1.000000e+000 
1.000000e+000 
1.000000e+000 
1.000000e+000 
1.000000e+000 
1.000000e+000 
1.000000e+000 
1.000000e+000 
1.000000e+000 
1.000000e+000 
1.000000e+000 
1.000000e+000 
1.000000e+000 
1.000000e+000 
1.000000e+000 
1.000000e+000 
1.000000e+000 
1.000000e+000 
1.000000e+000 
1.000000e+000 
1.000000e+000 
1.000000e+000 
1.000000e+000 
1.000000e+000 
1.000000e+000 
1.000000e+000 
1.000000e+000 
1.000000e+000 
1.000000e+000 
1.000000e+000 
1.000000e+000 
1.000000e+000 
1.000000e+000 
1.000000e+000 
1.000000e+000 
1.000000e+000 
1.000000e+000 
1.000000e+000 
1.000000e+000 
1.000000e+000 
1.000000e+000 
1.000000e+000 
1.000000e+000 
1.000000e+000 
1.000000e+000 
1.000000e+000 
1.000000e+000 
1.000000e+000 
1.000000e+000 
1.293329e-004 
1.292693e-004 
1.292065e-004 
1.291985e-004 
1.292120e-004 
1.293503e-004 
1.295602e-004 
1.298247e-004 
1.301260e-004 
1.305354e-004 
1.309871e-004 
1.314517e-004 
1.319785e-004 
1.325830e-004 
1.331923e-004 
1.338117e-004 
1.345202e-004 
1.352653e-004 
1.359963e-004 
1.367701e-004 
1.376401e-004 
1.385003e-004 
1.393611e-004 
1.403071e-004 
1.413217e-004 
1.422936e-004 
1.433122e-004 
1.444342e-004 
1.455673e-004 
1.466586e-004 
1.478504e-004 
1.491145e-004 
1.503280e-004 
1.515389e-004 
1.528731e-004 
1.541984e-004 
1.554401e-004 
1.567347e-004 
1.581102e-004 
1.593749e-004 
1.605700e-004 
1.618448e-004 
1.630872e-004 
1.641433e-004 
1.651770e-004 
1.662445e-004 
1.671316e-004 
1.678219e-004 
1.685244e-004 
1.691318e-004 
1.694458e-004 
1.696187e-004 
1.697738e-004 
1.696705e-004 
1.692608e-004 
1.687859e-004 
1.681871e-004 
1.672259e-004 
1.660588e-004 
1.648609e-004 
1.634140e-004 
1.616433e-004 
1.598245e-004 
1.579460e-004 
1.557794e-004 
1.534748e-004 
1.512505e-004 
1.489269e-004 
1.464344e-004 
1.440478e-004 
1.417970e-004 
1.394845e-004 
1.372473e-004 
1.352990e-004 
1.335009e-004 
1.317899e-004 
1.303965e-004 
1.293536e-004 
1.284927e-004 
1.279093e-004 
1.277591e-004 
1.279250e-004 
1.283294e-004 
1.291239e-004 
1.303067e-004 
1.317306e-004 
1.334219e-004 
1.354705e-004 
1.377578e-004 
1.402020e-004 
1.428649e-004 
1.457356e-004 
1.486732e-004 
1.516804e-004 
1.547857e-004 
1.579171e-004 
1.609799e-004 
1.640287e-004 
1.670334e-004 
1.699271e-004 
1.726751e-004 
1.753429e-004 
1.778559e-004 
1.801993e-004 
1.823707e-004 
1.844254e-004 
1.862707e-004 
1.879578e-004 
1.894740e-004 
1.908695e-004 
1.920499e-004 
1.931199e-004 
1.940245e-004 
1.948284e-004 
1.954322e-004 
1.959760e-004 
1.963495e-004 
1.966510e-004 
1.967623e-004 
1.968509e-004 
1.967670e-004 
1.966462e-004 
1.963683e-004 
1.961265e-004 
1.959030e-004 
1.957985e-004 
1.000000e+000 
1.000000e+000 
1.293821e-004 
1.293179e-004 
1.292620e-004 
1.293146e-004 
1.293373e-004 
1.294687e-004 
1.296522e-004 
1.299361e-004 
1.302166e-004 
1.305908e-004 
1.310247e-004 
1.314901e-004 
1.319798e-004 
1.325459e-004 
1.331529e-004 
1.337560e-004 
1.344196e-004 
1.351371e-004 
1.358719e-004 
1.366092e-004 
1.374347e-004 
1.382811e-004 
1.391373e-004 
1.400278e-004 
1.410063e-004 
1.419726e-004 
1.429663e-004 
1.440209e-004 
1.451329e-004 
1.462165e-004 
1.473574e-004 
1.485554e-004 
1.497655e-004 
1.509545e-004 
1.522156e-004 
1.534941e-004 
1.547472e-004 
1.559951e-004 
1.572916e-004 
1.585469e-004 
1.597566e-004 
1.609570e-004 
1.621450e-004 
1.632386e-004 
1.642695e-004 
1.652508e-004 
1.661454e-004 
1.669075e-004 
1.675725e-004 
1.681239e-004 
1.685300e-004 
1.687704e-004 
1.688622e-004 
1.687889e-004 
1.685372e-004 
1.680839e-004 
1.674454e-004 
1.666328e-004 
1.656247e-004 
1.643965e-004 
1.630055e-004 
1.614702e-004 
1.597379e-004 
1.578316e-004 
1.558532e-004 
1.537738e-004 
1.515435e-004 
1.492777e-004 
1.470556e-004 
1.447832e-004 
1.424939e-004 
1.403597e-004 
1.383522e-004 
1.363823e-004 
1.346036e-004 
1.331262e-004 
1.318124e-004 
1.306825e-004 
1.299305e-004 
1.295082e-004 
1.292759e-004 
1.293855e-004 
1.299237e-004 
1.307173e-004 
1.317408e-004 
1.331741e-004 
1.349206e-004 
1.368214e-004 
1.389721e-004 
1.414483e-004 
1.440345e-004 
1.467042e-004 
1.495712e-004 
1.525674e-004 
1.554963e-004 
1.584694e-004 
1.615066e-004 
1.644738e-004 
1.672845e-004 
1.701058e-004 
1.728278e-004 
1.753701e-004 
1.777437e-004 
1.800869e-004 
1.822027e-004 
1.841419e-004 
1.859281e-004 
1.876462e-004 
1.890788e-004 
1.904141e-004 
1.915953e-004 
1.926941e-004 
1.935091e-004 
1.943250e-004 
1.949515e-004 
1.955148e-004 
1.958202e-004 
1.962016e-004 
1.963364e-004 
1.964565e-004 
1.963568e-004 
1.963721e-004 
1.961355e-004 
1.959615e-004 
1.958021e-004 
1.957316e-004 
1.000000e+000 
1.000000e+000 
1.294304e-004 
1.293862e-004 
1.293238e-004 
1.293183e-004 
1.294069e-004 
1.295456e-004 
1.296993e-004 
1.299511e-004 
1.302771e-004 
1.306160e-004 
1.309932e-004 
1.314712e-004 
1.319744e-004 
1.324699e-004 
1.330401e-004 
1.336852e-004 
1.343093e-004 
1.349493e-004 
1.356926e-004 
1.364594e-004 
1.371915e-004 
1.379936e-004 
1.388917e-004 
1.397571e-004 
1.406210e-004 
1.416022e-004 
1.426271e-004 
1.435903e-004 
1.446191e-004 
1.457661e-004 
1.468796e-004 
1.479531e-004 
1.491524e-004 
1.504058e-004 
1.515652e-004 
1.527493e-004 
1.540629e-004 
1.553212e-004 
1.564777e-004 
1.577232e-004 
1.590181e-004 
1.601535e-004 
1.612353e-004 
1.624112e-004 
1.634916e-004 
1.643669e-004 
1.652519e-004 
1.661423e-004 
1.667919e-004 
1.672695e-004 
1.677728e-004 
1.681213e-004 
1.681605e-004 
1.681070e-004 
1.680093e-004 
1.676081e-004 
1.669448e-004 
1.662488e-004 
1.653815e-004 
1.641704e-004 
1.628294e-004 
1.614523e-004 
1.598130e-004 
1.579391e-004 
1.560735e-004 
1.541307e-004 
1.519634e-004 
1.497691e-004 
1.476669e-004 
1.454888e-004 
1.432646e-004 
1.412122e-004 
1.392895e-004 
1.373917e-004 
1.356763e-004 
1.342460e-004 
1.329861e-004 
1.319175e-004 
1.311889e-004 
1.307702e-004 
1.305835e-004 
1.307165e-004 
1.312170e-004 
1.320002e-004 
1.330536e-004 
1.344387e-004 
1.361130e-004 
1.380093e-004 
1.401393e-004 
1.425027e-004 
1.450279e-004 
1.476817e-004 
1.504600e-004 
1.533270e-004 
1.562249e-004 
1.591397e-004 
1.620483e-004 
1.649179e-004 
1.677120e-004 
1.704260e-004 
1.730339e-004 
1.755239e-004 
1.778721e-004 
1.800851e-004 
1.821444e-004 
1.840571e-004 
1.858036e-004 
1.874063e-004 
1.888504e-004 
1.901543e-004 
1.912984e-004 
1.923213e-004 
1.931996e-004 
1.939594e-004 
1.945802e-004 
1.951104e-004 
1.955086e-004 
1.958116e-004 
1.960012e-004 
1.961224e-004 
1.961265e-004 
1.960693e-004 
1.959637e-004 
1.958090e-004 
1.956278e-004 
1.954863e-004 
1.000000e+000 
1.000000e+000 
1.294428e-004 
1.293337e-004 
1.293162e-004 
1.293175e-004 
1.293888e-004 
1.295232e-004 
1.297101e-004 
1.299325e-004 
1.302365e-004 
1.305887e-004 
1.309650e-004 
1.313916e-004 
1.318814e-004 
1.323953e-004 
1.329276e-004 
1.335209e-004 
1.341522e-004 
1.347955e-004 
1.354701e-004 
1.362068e-004 
1.369595e-004 
1.377302e-004 
1.385491e-004 
1.394189e-004 
1.402937e-004 
1.412039e-004 
1.421686e-004 
1.431665e-004 
1.441704e-004 
1.452242e-004 
1.463234e-004 
1.474379e-004 
1.485637e-004 
1.497396e-004 
1.509394e-004 
1.521368e-004 
1.533431e-004 
1.545829e-004 
1.558157e-004 
1.570211e-004 
1.582199e-004 
1.594214e-004 
1.605716e-004 
1.616583e-004 
1.627139e-004 
1.637257e-004 
1.646244e-004 
1.654220e-004 
1.661602e-004 
1.667863e-004 
1.672321e-004 
1.675573e-004 
1.677865e-004 
1.678176e-004 
1.676311e-004 
1.673333e-004 
1.668842e-004 
1.661680e-004 
1.652652e-004 
1.642737e-004 
1.630665e-004 
1.616005e-004 
1.600509e-004 
1.584200e-004 
1.565499e-004 
1.545479e-004 
1.525873e-004 
1.505374e-004 
1.483332e-004 
1.462104e-004 
1.442089e-004 
1.421435e-004 
1.401331e-004 
1.383977e-004 
1.367991e-004 
1.352510e-004 
1.340058e-004 
1.331069e-004 
1.323441e-004 
1.318179e-004 
1.317371e-004 
1.319408e-004 
1.323166e-004 
1.330776e-004 
1.342386e-004 
1.355673e-004 
1.371262e-004 
1.390693e-004 
1.412258e-004 
1.434599e-004 
1.459340e-004 
1.486320e-004 
1.513401e-004 
1.540806e-004 
1.569794e-004 
1.598784e-004 
1.626644e-004 
1.654533e-004 
1.682555e-004 
1.708866e-004 
1.733801e-004 
1.758342e-004 
1.781645e-004 
1.802617e-004 
1.822544e-004 
1.841508e-004 
1.858518e-004 
1.873494e-004 
1.887822e-004 
1.900649e-004 
1.911583e-004 
1.921138e-004 
1.930224e-004 
1.937475e-004 
1.943416e-004 
1.948471e-004 
1.953014e-004 
1.955637e-004 
1.957697e-004 
1.959032e-004 
1.959778e-004 
1.958760e-004 
1.957969e-004 
1.956730e-004 
1.954960e-004 
1.952168e-004 
1.000000e+000 
1.000000e+000 
1.294297e-004 
1.292924e-004 
1.292324e-004 
1.292660e-004 
1.293229e-004 
1.294403e-004 
1.296558e-004 
1.298919e-004 
1.301466e-004 
1.304934e-004 
1.309014e-004 
1.312945e-004 
1.317332e-004 
1.322682e-004 
1.328046e-004 
1.333283e-004 
1.339387e-004 
1.346127e-004 
1.352441e-004 
1.359094e-004 
1.366820e-004 
1.374582e-004 
1.381941e-004 
1.390285e-004 
1.399436e-004 
1.408082e-004 
1.416868e-004 
1.427018e-004 
1.437268e-004 
1.446906e-004 
1.457462e-004 
1.469128e-004 
1.480108e-004 
1.490940e-004 
1.503171e-004 
1.515613e-004 
1.526970e-004 
1.538944e-004 
1.552032e-004 
1.564179e-004 
1.575467e-004 
1.587846e-004 
1.600220e-004 
1.610832e-004 
1.621214e-004 
1.632334e-004 
1.641941e-004 
1.649683e-004 
1.657646e-004 
1.665087e-004 
1.669878e-004 
1.673324e-004 
1.676715e-004 
1.677996e-004 
1.676442e-004 
1.674156e-004 
1.670807e-004 
1.664364e-004 
1.655856e-004 
1.646800e-004 
1.635623e-004 
1.621633e-004 
1.606746e-004 
1.591079e-004 
1.573120e-004 
1.553772e-004 
1.534492e-004 
1.514401e-004 
1.493146e-004 
1.472284e-004 
1.452160e-004 
1.432014e-004 
1.412600e-004 
1.394967e-004 
1.378802e-004 
1.364100e-004 
1.351763e-004 
1.342017e-004 
1.334666e-004 
1.330079e-004 
1.328571e-004 
1.330046e-004 
1.334563e-004 
1.342141e-004 
1.352653e-004 
1.366091e-004 
1.382303e-004 
1.400848e-004 
1.421661e-004 
1.444659e-004 
1.469238e-004 
1.494979e-004 
1.522011e-004 
1.549862e-004 
1.577833e-004 
1.605902e-004 
1.634115e-004 
1.661694e-004 
1.688356e-004 
1.714362e-004 
1.739467e-004 
1.762986e-004 
1.785214e-004 
1.806318e-004 
1.825870e-004 
1.843602e-004 
1.860146e-004 
1.875307e-004 
1.888783e-004 
1.900730e-004 
1.911741e-004 
1.921262e-004 
1.929386e-004 
1.936427e-004 
1.942695e-004 
1.947480e-004 
1.951363e-004 
1.954462e-004 
1.956792e-004 
1.957753e-004 
1.958316e-004 
1.958243e-004 
1.957372e-004 
1.955426e-004 
1.952706e-004 
1.949820e-004 
1.000000e+000 
1.000000e+000 
1.292719e-004 
1.291506e-004 
1.290955e-004 
1.291319e-004 
1.292145e-004 
1.293373e-004 
1.295125e-004 
1.297685e-004 
1.300545e-004 
1.303654e-004 
1.307379e-004 
1.311668e-004 
1.316028e-004 
1.320696e-004 
1.326015e-004 
1.331605e-004 
1.337191e-004 
1.343271e-004 
1.349929e-004 
1.356615e-004 
1.363433e-004 
1.370934e-004 
1.378824e-004 
1.386636e-004 
1.394866e-004 
1.403840e-004 
1.412941e-004 
1.422041e-004 
1.431857e-004 
1.442268e-004 
1.452557e-004 
1.463078e-004 
1.474462e-004 
1.486069e-004 
1.497401e-004 
1.509252e-004 
1.521813e-004 
1.534053e-004 
1.546020e-004 
1.558672e-004 
1.571470e-004 
1.583375e-004 
1.595151e-004 
1.607427e-004 
1.618901e-004 
1.629087e-004 
1.639308e-004 
1.649295e-004 
1.657400e-004 
1.664206e-004 
1.670962e-004 
1.676231e-004 
1.678903e-004 
1.680651e-004 
1.681746e-004 
1.680031e-004 
1.675862e-004 
1.671227e-004 
1.664842e-004 
1.655059e-004 
1.643915e-004 
1.632392e-004 
1.618114e-004 
1.601270e-004 
1.584568e-004 
1.567077e-004 
1.546871e-004 
1.526264e-004 
1.506863e-004 
1.486304e-004 
1.464704e-004 
1.445160e-004 
1.427019e-004 
1.408276e-004 
1.391256e-004 
1.377716e-004 
1.365348e-004 
1.354133e-004 
1.346959e-004 
1.343122e-004 
1.340582e-004 
1.341247e-004 
1.346457e-004 
1.353903e-004 
1.363286e-004 
1.376777e-004 
1.393438e-004 
1.411252e-004 
1.431474e-004 
1.454887e-004 
1.479325e-004 
1.504286e-004 
1.531242e-004 
1.559288e-004 
1.586658e-004 
1.614195e-004 
1.642447e-004 
1.669756e-004 
1.695656e-004 
1.721347e-004 
1.746265e-004 
1.769157e-004 
1.790688e-004 
1.811541e-004 
1.830608e-004 
1.847631e-004 
1.863636e-004 
1.878526e-004 
1.891371e-004 
1.902775e-004 
1.913410e-004 
1.922686e-004 
1.930247e-004 
1.937038e-004 
1.943088e-004 
1.947780e-004 
1.951296e-004 
1.954444e-004 
1.956705e-004 
1.957807e-004 
1.958164e-004 
1.958176e-004 
1.956924e-004 
1.955067e-004 
1.952710e-004 
1.949008e-004 
1.000000e+000 
1.000000e+000 
1.290534e-004 
1.289866e-004 
1.289280e-004 
1.289243e-004 
1.290245e-004 
1.291917e-004 
1.293517e-004 
1.295832e-004 
1.298974e-004 
1.302182e-004 
1.305485e-004 
1.309717e-004 
1.314328e-004 
1.318691e-004 
1.323571e-004 
1.329314e-004 
1.334897e-004 
1.340398e-004 
1.346855e-004 
1.353749e-004 
1.360198e-004 
1.367139e-004 
1.375138e-004 
1.382975e-004 
1.390590e-004 
1.399312e-004 
1.408692e-004 
1.417519e-004 
1.426793e-004 
1.437376e-004 
1.447893e-004 
1.457978e-004 
1.469220e-004 
1.481322e-004 
1.492733e-004 
1.504313e-004 
1.517267e-004 
1.530134e-004 
1.542160e-004 
1.554996e-004 
1.568623e-004 
1.581186e-004 
1.593245e-004 
1.606216e-004 
1.618749e-004 
1.629681e-004 
1.640528e-004 
1.651537e-004 
1.660811e-004 
1.668513e-004 
1.676098e-004 
1.682506e-004 
1.686439e-004 
1.689099e-004 
1.690962e-004 
1.690456e-004 
1.687542e-004 
1.683495e-004 
1.677733e-004 
1.669273e-004 
1.659015e-004 
1.647518e-004 
1.633939e-004 
1.618349e-004 
1.601686e-004 
1.583876e-004 
1.564667e-004 
1.544688e-004 
1.524380e-004 
1.503766e-004 
1.483213e-004 
1.463115e-004 
1.443745e-004 
1.425608e-004 
1.408946e-004 
1.393807e-004 
1.380852e-004 
1.370540e-004 
1.362492e-004 
1.357003e-004 
1.354939e-004 
1.355916e-004 
1.359388e-004 
1.366207e-004 
1.376553e-004 
1.389263e-004 
1.404414e-004 
1.422815e-004 
1.443482e-004 
1.465430e-004 
1.489425e-004 
1.515386e-004 
1.541766e-004 
1.568548e-004 
1.596449e-004 
1.624400e-004 
1.651375e-004 
1.678185e-004 
1.704804e-004 
1.729915e-004 
1.753560e-004 
1.776626e-004 
1.798320e-004 
1.817920e-004 
1.836247e-004 
1.853628e-004 
1.869028e-004 
1.882653e-004 
1.895388e-004 
1.906892e-004 
1.916471e-004 
1.925010e-004 
1.932861e-004 
1.939358e-004 
1.944423e-004 
1.949087e-004 
1.952970e-004 
1.955581e-004 
1.957323e-004 
1.958877e-004 
1.959324e-004 
1.958844e-004 
1.957731e-004 
1.955846e-004 
1.952238e-004 
1.948158e-004 
1.000000e+000 
1.000000e+000 
1.287672e-004 
1.286645e-004 
1.286682e-004 
1.287172e-004 
1.287889e-004 
1.289435e-004 
1.291590e-004 
1.293889e-004 
1.296560e-004 
1.300044e-004 
1.303722e-004 
1.307392e-004 
1.311681e-004 
1.316586e-004 
1.321327e-004 
1.326238e-004 
1.331970e-004 
1.337943e-004 
1.343639e-004 
1.349923e-004 
1.357006e-004 
1.363923e-004 
1.370815e-004 
1.378718e-004 
1.387098e-004 
1.395099e-004 
1.403632e-004 
1.413320e-004 
1.422969e-004 
1.432398e-004 
1.442960e-004 
1.454366e-004 
1.465270e-004 
1.476481e-004 
1.489109e-004 
1.501841e-004 
1.513918e-004 
1.526952e-004 
1.541051e-004 
1.554333e-004 
1.567232e-004 
1.581422e-004 
1.595604e-004 
1.608255e-004 
1.621069e-004 
1.634741e-004 
1.646899e-004 
1.657379e-004 
1.668403e-004 
1.678936e-004 
1.686663e-004 
1.693200e-004 
1.699987e-004 
1.704423e-004 
1.705693e-004 
1.706532e-004 
1.706445e-004 
1.702585e-004 
1.696442e-004 
1.690252e-004 
1.681555e-004 
1.669113e-004 
1.656062e-004 
1.642579e-004 
1.625714e-004 
1.606891e-004 
1.588931e-004 
1.569769e-004 
1.548082e-004 
1.527154e-004 
1.507625e-004 
1.486779e-004 
1.465970e-004 
1.448086e-004 
1.431399e-004 
1.414694e-004 
1.400943e-004 
1.390742e-004 
1.381679e-004 
1.374831e-004 
1.372487e-004 
1.373014e-004 
1.375256e-004 
1.381369e-004 
1.391485e-004 
1.403437e-004 
1.417794e-004 
1.435921e-004 
1.456229e-004 
1.477586e-004 
1.501260e-004 
1.527016e-004 
1.553046e-004 
1.579538e-004 
1.607251e-004 
1.634924e-004 
1.661649e-004 
1.688242e-004 
1.714545e-004 
1.739324e-004 
1.762726e-004 
1.785404e-004 
1.806632e-004 
1.825876e-004 
1.843827e-004 
1.860622e-004 
1.875542e-004 
1.888789e-004 
1.901001e-004 
1.911895e-004 
1.921124e-004 
1.929268e-004 
1.936582e-004 
1.942672e-004 
1.947579e-004 
1.951868e-004 
1.955398e-004 
1.957895e-004 
1.959612e-004 
1.960906e-004 
1.961275e-004 
1.960633e-004 
1.959303e-004 
1.957462e-004 
1.954415e-004 
1.949739e-004 
1.000000e+000 
1.000000e+000 
1.284377e-004 
1.283541e-004 
1.283385e-004 
1.284223e-004 
1.285228e-004 
1.286613e-004 
1.288886e-004 
1.291548e-004 
1.294115e-004 
1.297330e-004 
1.301233e-004 
1.305047e-004 
1.308951e-004 
1.313698e-004 
1.318689e-004 
1.323427e-004 
1.328697e-004 
1.334722e-004 
1.340550e-004 
1.346410e-004 
1.353190e-004 
1.360335e-004 
1.367154e-004 
1.374589e-004 
1.382983e-004 
1.391283e-004 
1.399594e-004 
1.409036e-004 
1.419062e-004 
1.428802e-004 
1.439187e-004 
1.450783e-004 
1.462407e-004 
1.473979e-004 
1.486706e-004 
1.500182e-004 
1.513289e-004 
1.526817e-004 
1.541469e-004 
1.556081e-004 
1.570251e-004 
1.585106e-004 
1.600394e-004 
1.614896e-004 
1.629038e-004 
1.643534e-004 
1.657397e-004 
1.669998e-004 
1.682110e-004 
1.693667e-004 
1.703636e-004 
1.712070e-004 
1.719475e-004 
1.725307e-004 
1.729022e-004 
1.730925e-004 
1.731097e-004 
1.729140e-004 
1.724940e-004 
1.718641e-004 
1.710341e-004 
1.700041e-004 
1.687592e-004 
1.673153e-004 
1.657294e-004 
1.639996e-004 
1.620938e-004 
1.600894e-004 
1.580646e-004 
1.559617e-004 
1.537919e-004 
1.517072e-004 
1.497154e-004 
1.477288e-004 
1.458715e-004 
1.442762e-004 
1.428316e-004 
1.415259e-004 
1.405611e-004 
1.399228e-004 
1.394598e-004 
1.393018e-004 
1.395787e-004 
1.401145e-004 
1.408618e-004 
1.420116e-004 
1.435010e-004 
1.451303e-004 
1.470043e-004 
1.492141e-004 
1.515476e-004 
1.539345e-004 
1.565329e-004 
1.592577e-004 
1.619098e-004 
1.645745e-004 
1.673270e-004 
1.699786e-004 
1.724698e-004 
1.749442e-004 
1.773464e-004 
1.795188e-004 
1.815449e-004 
1.835135e-004 
1.852929e-004 
1.868422e-004 
1.883010e-004 
1.896559e-004 
1.907904e-004 
1.917756e-004 
1.927125e-004 
1.935123e-004 
1.941348e-004 
1.946998e-004 
1.952209e-004 
1.955965e-004 
1.958702e-004 
1.961370e-004 
1.963266e-004 
1.963833e-004 
1.963976e-004 
1.963919e-004 
1.962522e-004 
1.959768e-004 
1.956251e-004 
1.952200e-004 
1.000000e+000 
1.000000e+000 
1.279785e-004 
1.279623e-004 
1.279728e-004 
1.280459e-004 
1.281991e-004 
1.283770e-004 
1.285626e-004 
1.288324e-004 
1.291539e-004 
1.294572e-004 
1.297928e-004 
1.302182e-004 
1.306426e-004 
1.310441e-004 
1.315230e-004 
1.320660e-004 
1.325640e-004 
1.330810e-004 
1.337073e-004 
1.343435e-004 
1.349315e-004 
1.356094e-004 
1.363869e-004 
1.371197e-004 
1.378575e-004 
1.387444e-004 
1.396751e-004 
1.405448e-004 
1.415112e-004 
1.426331e-004 
1.437235e-004 
1.447976e-004 
1.460507e-004 
1.473956e-004 
1.486572e-004 
1.499948e-004 
1.515283e-004 
1.530383e-004 
1.544714e-004 
1.560679e-004 
1.577768e-004 
1.593460e-004 
1.609018e-004 
1.626353e-004 
1.643110e-004 
1.657869e-004 
1.673262e-004 
1.689384e-004 
1.703048e-004 
1.714966e-004 
1.727723e-004 
1.739153e-004 
1.747008e-004 
1.753975e-004 
1.760911e-004 
1.764381e-004 
1.764556e-004 
1.764583e-004 
1.762821e-004 
1.756623e-004 
1.748629e-004 
1.740420e-004 
1.728816e-004 
1.713735e-004 
1.698611e-004 
1.682456e-004 
1.662767e-004 
1.642084e-004 
1.622362e-004 
1.601005e-004 
1.577988e-004 
1.556590e-004 
1.536257e-004 
1.514996e-004 
1.495063e-004 
1.478193e-004 
1.462374e-004 
1.447687e-004 
1.436673e-004 
1.428792e-004 
1.422552e-004 
1.419555e-004 
1.420758e-004 
1.424524e-004 
1.430812e-004 
1.441012e-004 
1.454348e-004 
1.469638e-004 
1.487627e-004 
1.508448e-004 
1.530768e-004 
1.554343e-004 
1.579636e-004 
1.605850e-004 
1.632129e-004 
1.658706e-004 
1.685416e-004 
1.711404e-004 
1.736500e-004 
1.760887e-004 
1.784107e-004 
1.805768e-004 
1.826071e-004 
1.845001e-004 
1.862226e-004 
1.877810e-004 
1.891981e-004 
1.904639e-004 
1.915740e-004 
1.925529e-004 
1.934110e-004 
1.941452e-004 
1.947687e-004 
1.953000e-004 
1.957410e-004 
1.960977e-004 
1.963790e-004 
1.965937e-004 
1.967397e-004 
1.968210e-004 
1.968290e-004 
1.967647e-004 
1.966154e-004 
1.964000e-004 
1.960836e-004 
1.956160e-004 
1.000000e+000 
1.000000e+000 
1.274814e-004 
1.275134e-004 
1.275711e-004 
1.276480e-004 
1.277975e-004 
1.280225e-004 
1.282413e-004 
1.284854e-004 
1.288055e-004 
1.291539e-004 
1.294846e-004 
1.298681e-004 
1.303124e-004 
1.307461e-004 
1.311834e-004 
1.316962e-004 
1.322368e-004 
1.327572e-004 
1.333247e-004 
1.339677e-004 
1.346081e-004 
1.352567e-004 
1.359924e-004 
1.367817e-004 
1.375638e-004 
1.384064e-004 
1.393507e-004 
1.403224e-004 
1.413160e-004 
1.424167e-004 
1.436040e-004 
1.448086e-004 
1.460803e-004 
1.474733e-004 
1.489211e-004 
1.503945e-004 
1.519637e-004 
1.536286e-004 
1.553133e-004 
1.570293e-004 
1.588287e-004 
1.606682e-004 
1.624879e-004 
1.643162e-004 
1.661742e-004 
1.680001e-004 
1.697486e-004 
1.714496e-004 
1.731063e-004 
1.746454e-004 
1.760290e-004 
1.773014e-004 
1.784537e-004 
1.793907e-004 
1.801018e-004 
1.806645e-004 
1.810319e-004 
1.810950e-004 
1.809203e-004 
1.805947e-004 
1.799982e-004 
1.790732e-004 
1.779860e-004 
1.767532e-004 
1.752062e-004 
1.734301e-004 
1.716221e-004 
1.696601e-004 
1.674428e-004 
1.652166e-004 
1.630630e-004 
1.607669e-004 
1.584244e-004 
1.563126e-004 
1.543021e-004 
1.522553e-004 
1.504597e-004 
1.490163e-004 
1.476677e-004 
1.465023e-004 
1.458058e-004 
1.454142e-004 
1.451585e-004 
1.453069e-004 
1.459193e-004 
1.467043e-004 
1.477203e-004 
1.491955e-004 
1.509279e-004 
1.527335e-004 
1.548231e-004 
1.572051e-004 
1.595945e-004 
1.620235e-004 
1.646609e-004 
1.673166e-004 
1.698287e-004 
1.723651e-004 
1.749325e-004 
1.773043e-004 
1.795102e-004 
1.817016e-004 
1.837488e-004 
1.855344e-004 
1.872059e-004 
1.888041e-004 
1.901701e-004 
1.913344e-004 
1.924423e-004 
1.934262e-004 
1.941925e-004 
1.948653e-004 
1.955056e-004 
1.960006e-004 
1.963545e-004 
1.966993e-004 
1.969952e-004 
1.971539e-004 
1.972503e-004 
1.973562e-004 
1.973649e-004 
1.972613e-004 
1.971226e-004 
1.969212e-004 
1.965370e-004 
1.960780e-004 
1.000000e+000 
1.000000e+000 
1.269520e-004 
1.269648e-004 
1.270769e-004 
1.272418e-004 
1.273850e-004 
1.275856e-004 
1.278690e-004 
1.281471e-004 
1.284143e-004 
1.287735e-004 
1.291707e-004 
1.295224e-004 
1.299145e-004 
1.304061e-004 
1.308721e-004 
1.313076e-004 
1.318481e-004 
1.324491e-004 
1.329826e-004 
1.335588e-004 
1.342736e-004 
1.349793e-004 
1.356383e-004 
1.364363e-004 
1.373466e-004 
1.381933e-004 
1.390843e-004 
1.401770e-004 
1.413037e-004 
1.423747e-004 
1.436120e-004 
1.450337e-004 
1.464041e-004 
1.478020e-004 
1.494477e-004 
1.511748e-004 
1.528122e-004 
1.545953e-004 
1.566022e-004 
1.585439e-004 
1.604307e-004 
1.625373e-004 
1.647204e-004 
1.667190e-004 
1.687451e-004 
1.709471e-004 
1.730065e-004 
1.748477e-004 
1.767764e-004 
1.787015e-004 
1.802963e-004 
1.817286e-004 
1.832121e-004 
1.844458e-004 
1.852875e-004 
1.860510e-004 
1.867153e-004 
1.869451e-004 
1.868687e-004 
1.867435e-004 
1.863278e-004 
1.854658e-004 
1.844591e-004 
1.833468e-004 
1.818468e-004 
1.800714e-004 
1.782810e-004 
1.763098e-004 
1.740442e-004 
1.717523e-004 
1.694966e-004 
1.670849e-004 
1.646295e-004 
1.623413e-004 
1.601174e-004 
1.579095e-004 
1.559188e-004 
1.541815e-004 
1.525921e-004 
1.512447e-004 
1.502488e-004 
1.495315e-004 
1.490865e-004 
1.490073e-004 
1.492691e-004 
1.498187e-004 
1.506961e-004 
1.518933e-004 
1.533459e-004 
1.550524e-004 
1.570005e-004 
1.591198e-004 
1.613864e-004 
1.637915e-004 
1.662627e-004 
1.687562e-004 
1.712785e-004 
1.737774e-004 
1.761881e-004 
1.785237e-004 
1.807759e-004 
1.828783e-004 
1.848250e-004 
1.866520e-004 
1.883226e-004 
1.898038e-004 
1.911410e-004 
1.923511e-004 
1.933894e-004 
1.942767e-004 
1.950662e-004 
1.957403e-004 
1.962762e-004 
1.967312e-004 
1.971244e-004 
1.974198e-004 
1.976304e-004 
1.978104e-004 
1.979300e-004 
1.979670e-004 
1.979505e-004 
1.978940e-004 
1.977394e-004 
1.975113e-004 
1.972254e-004 
1.967991e-004 
1.000000e+000 
1.000000e+000 
1.263637e-004 
1.264455e-004 
1.265480e-004 
1.267383e-004 
1.269530e-004 
1.271621e-004 
1.274220e-004 
1.277462e-004 
1.280556e-004 
1.283722e-004 
1.287588e-004 
1.291756e-004 
1.295641e-004 
1.299933e-004 
1.304940e-004 
1.309909e-004 
1.314783e-004 
1.320447e-004 
1.326653e-004 
1.332684e-004 
1.339101e-004 
1.346558e-004 
1.354320e-004 
1.362115e-004 
1.370886e-004 
1.380729e-004 
1.390757e-004 
1.401323e-004 
1.413330e-004 
1.426257e-004 
1.439449e-004 
1.453774e-004 
1.469704e-004 
1.486273e-004 
1.503321e-004 
1.521925e-004 
1.541891e-004 
1.562089e-004 
1.582953e-004 
1.605408e-004 
1.628507e-004 
1.651301e-004 
1.674793e-004 
1.699365e-004 
1.723406e-004 
1.746572e-004 
1.770253e-004 
1.793871e-004 
1.815551e-004 
1.835994e-004 
1.856458e-004 
1.875171e-004 
1.890809e-004 
1.905240e-004 
1.918724e-004 
1.928646e-004 
1.935258e-004 
1.940923e-004 
1.944158e-004 
1.942742e-004 
1.938965e-004 
1.934226e-004 
1.925539e-004 
1.912721e-004 
1.899202e-004 
1.884074e-004 
1.864514e-004 
1.843139e-004 
1.822370e-004 
1.799153e-004 
1.773054e-004 
1.748218e-004 
1.724185e-004 
1.697885e-004 
1.672099e-004 
1.649677e-004 
1.627563e-004 
1.605243e-004 
1.586908e-004 
1.572051e-004 
1.557576e-004 
1.546068e-004 
1.539945e-004 
1.536056e-004 
1.533807e-004 
1.536641e-004 
1.543569e-004 
1.551610e-004 
1.562743e-004 
1.578442e-004 
1.595619e-004 
1.613590e-004 
1.634767e-004 
1.657888e-004 
1.680387e-004 
1.703648e-004 
1.728555e-004 
1.752590e-004 
1.775192e-004 
1.798174e-004 
1.820629e-004 
1.840696e-004 
1.859496e-004 
1.877925e-004 
1.894316e-004 
1.908346e-004 
1.921598e-004 
1.933766e-004 
1.943572e-004 
1.951948e-004 
1.959894e-004 
1.966410e-004 
1.971165e-004 
1.975496e-004 
1.979445e-004 
1.982018e-004 
1.983719e-004 
1.985533e-004 
1.986706e-004 
1.986728e-004 
1.986470e-004 
1.986203e-004 
1.984790e-004 
1.982172e-004 
1.979064e-004 
1.975548e-004 
1.000000e+000 
1.000000e+000 
1.256779e-004 
1.258570e-004 
1.260232e-004 
1.261954e-004 
1.264517e-004 
1.267369e-004 
1.269777e-004 
1.272767e-004 
1.276539e-004 
1.279968e-004 
1.283249e-004 
1.287584e-004 
1.292165e-004 
1.296137e-004 
1.300718e-004 
1.306386e-004 
1.311626e-004 
1.316685e-004 
1.323120e-004 
1.330134e-004 
1.336462e-004 
1.343640e-004 
1.352482e-004 
1.361179e-004 
1.369737e-004 
1.380261e-004 
1.392035e-004 
1.403300e-004 
1.415669e-004 
1.430529e-004 
1.445760e-004 
1.460886e-004 
1.478419e-004 
1.497965e-004 
1.517093e-004 
1.537186e-004 
1.560194e-004 
1.583864e-004 
1.606912e-004 
1.631987e-004 
1.659152e-004 
1.685383e-004 
1.711430e-004 
1.739698e-004 
1.768055e-004 
1.794405e-004 
1.821173e-004 
1.848979e-004 
1.874576e-004 
1.898008e-004 
1.921870e-004 
1.944513e-004 
1.963440e-004 
1.980668e-004 
1.997292e-004 
2.010431e-004 
2.019720e-004 
2.027656e-004 
2.033247e-004 
2.034281e-004 
2.032392e-004 
2.028854e-004 
2.021622e-004 
2.010459e-004 
1.997466e-004 
1.982219e-004 
1.963409e-004 
1.942413e-004 
1.920272e-004 
1.895981e-004 
1.869849e-004 
1.843300e-004 
1.816227e-004 
1.788485e-004 
1.761170e-004 
1.734693e-004 
1.708993e-004 
1.684880e-004 
1.662792e-004 
1.642624e-004 
1.625138e-004 
1.610805e-004 
1.599132e-004 
1.590608e-004 
1.586030e-004 
1.584616e-004 
1.586048e-004 
1.591362e-004 
1.600109e-004 
1.610996e-004 
1.624657e-004 
1.641465e-004 
1.659777e-004 
1.679158e-004 
1.700580e-004 
1.723058e-004 
1.745120e-004 
1.767495e-004 
1.790413e-004 
1.812228e-004 
1.832698e-004 
1.852889e-004 
1.872023e-004 
1.888969e-004 
1.904624e-004 
1.919489e-004 
1.932363e-004 
1.943238e-004 
1.953317e-004 
1.962251e-004 
1.969189e-004 
1.975047e-004 
1.980510e-004 
1.984702e-004 
1.987559e-004 
1.990239e-004 
1.992537e-004 
1.993653e-004 
1.994232e-004 
1.994956e-004 
1.994894e-004 
1.993767e-004 
1.992478e-004 
1.990992e-004 
1.988192e-004 
1.984110e-004 
1.000000e+000 
1.000000e+000 
1.250080e-004 
1.252115e-004 
1.254541e-004 
1.256837e-004 
1.259190e-004 
1.262279e-004 
1.265494e-004 
1.268404e-004 
1.271723e-004 
1.275765e-004 