# vtk DataFile Version 2.0
2D-ADE data file 
ASCII
DATASET RECTILINEAR_GRID
DIMENSIONS 128 128 1
X_COORDINATES 128 int
0 1 2 3 4 5 6 7 8 9 10 11 12 13 14 15 16 17 18 19 20 21 22 23 24 25 26 27 28 29 30 31 32 33 34 35 36 37 38 39 40 41 42 43 44 45 46 47 48 49 50 51 52 53 54 55 56 57 58 59 60 61 62 63 64 65 66 67 68 69 70 71 72 73 74 75 76 77 78 79 80 81 82 83 84 85 86 87 88 89 90 91 92 93 94 95 96 97 98 99 100 101 102 103 104 105 106 107 108 109 110 111 112 113 114 115 116 117 118 119 120 121 122 123 124 125 126 127 
Y_COORDINATES 128 int
0 1 2 3 4 5 6 7 8 9 10 11 12 13 14 15 16 17 18 19 20 21 22 23 24 25 26 27 28 29 30 31 32 33 34 35 36 37 38 39 40 41 42 43 44 45 46 47 48 49 50 51 52 53 54 55 56 57 58 59 60 61 62 63 64 65 66 67 68 69 70 71 72 73 74 75 76 77 78 79 80 81 82 83 84 85 86 87 88 89 90 91 92 93 94 95 96 97 98 99 100 101 102 103 104 105 106 107 108 109 110 111 112 113 114 115 116 117 118 119 120 121 122 123 124 125 126 127 
Z_COORDINATES 1 int
0
POINT_DATA 16384 
SCALARS density double 1
LOOKUP_TABLE default
1.000000e+000 
1.000000e+000 
1.000000e+000 
1.000000e+000 
1.000000e+000 
1.000000e+000 
1.000000e+000 
1.000000e+000 
1.000000e+000 
1.000000e+000 
1.000000e+000 
1.000000e+000 
1.000000e+000 
1.000000e+000 
1.000000e+000 
1.000000e+000 
1.000000e+000 
1.000000e+000 
1.000000e+000 
1.000000e+000 
1.000000e+000 
1.000000e+000 
1.000000e+000 
1.000000e+000 
1.000000e+000 
1.000000e+000 
1.000000e+000 
1.000000e+000 
1.000000e+000 
1.000000e+000 
1.000000e+000 
1.000000e+000 
1.000000e+000 
1.000000e+000 
1.000000e+000 
1.000000e+000 
1.000000e+000 
1.000000e+000 
1.000000e+000 
1.000000e+000 
1.000000e+000 
1.000000e+000 
1.000000e+000 
1.000000e+000 
1.000000e+000 
1.000000e+000 
1.000000e+000 
1.000000e+000 
1.000000e+000 
1.000000e+000 
1.000000e+000 
1.000000e+000 
1.000000e+000 
1.000000e+000 
1.000000e+000 
1.000000e+000 
1.000000e+000 
1.000000e+000 
1.000000e+000 
1.000000e+000 
1.000000e+000 
1.000000e+000 
1.000000e+000 
1.000000e+000 
1.000000e+000 
1.000000e+000 
1.000000e+000 
1.000000e+000 
1.000000e+000 
1.000000e+000 
1.000000e+000 
1.000000e+000 
1.000000e+000 
1.000000e+000 
1.000000e+000 
1.000000e+000 
1.000000e+000 
1.000000e+000 
1.000000e+000 
1.000000e+000 
1.000000e+000 
1.000000e+000 
1.000000e+000 
1.000000e+000 
1.000000e+000 
1.000000e+000 
1.000000e+000 
1.000000e+000 
1.000000e+000 
1.000000e+000 
1.000000e+000 
1.000000e+000 
1.000000e+000 
1.000000e+000 
1.000000e+000 
1.000000e+000 
1.000000e+000 
1.000000e+000 
1.000000e+000 
1.000000e+000 
1.000000e+000 
1.000000e+000 
1.000000e+000 
1.000000e+000 
1.000000e+000 
1.000000e+000 
1.000000e+000 
1.000000e+000 
1.000000e+000 
1.000000e+000 
1.000000e+000 
1.000000e+000 
1.000000e+000 
1.000000e+000 
1.000000e+000 
1.000000e+000 
1.000000e+000 
1.000000e+000 
1.000000e+000 
1.000000e+000 
1.000000e+000 
1.000000e+000 
1.000000e+000 
1.000000e+000 
1.000000e+000 
1.000000e+000 
1.000000e+000 
1.000000e+000 
1.000000e+000 
1.273857e-004 
1.273172e-004 
1.272432e-004 
1.272248e-004 
1.272299e-004 
1.273712e-004 
1.275864e-004 
1.278662e-004 
1.281874e-004 
1.286258e-004 
1.291087e-004 
1.296127e-004 
1.301819e-004 
1.308339e-004 
1.314924e-004 
1.321666e-004 
1.329314e-004 
1.337357e-004 
1.345283e-004 
1.353680e-004 
1.363052e-004 
1.372360e-004 
1.381714e-004 
1.391960e-004 
1.402916e-004 
1.413497e-004 
1.424596e-004 
1.436769e-004 
1.449094e-004 
1.461064e-004 
1.474089e-004 
1.487874e-004 
1.501207e-004 
1.514570e-004 
1.529201e-004 
1.543777e-004 
1.557563e-004 
1.571909e-004 
1.587076e-004 
1.601153e-004 
1.614550e-004 
1.628735e-004 
1.642579e-004 
1.654541e-004 
1.666245e-004 
1.678232e-004 
1.688353e-004 
1.696435e-004 
1.704547e-004 
1.711600e-004 
1.715603e-004 
1.718064e-004 
1.720201e-004 
1.719595e-004 
1.715759e-004 
1.711091e-004 
1.704998e-004 
1.695087e-004 
1.682921e-004 
1.670247e-004 
1.654886e-004 
1.636090e-004 
1.616623e-004 
1.596381e-004 
1.573088e-004 
1.548262e-004 
1.524103e-004 
1.498835e-004 
1.471784e-004 
1.445726e-004 
1.420985e-004 
1.395613e-004 
1.371013e-004 
1.349349e-004 
1.329262e-004 
1.310155e-004 
1.294360e-004 
1.282228e-004 
1.272100e-004 
1.264958e-004 
1.262368e-004 
1.263173e-004 
1.266612e-004 
1.274204e-004 
1.285925e-004 
1.300304e-004 
1.317598e-004 
1.338686e-004 
1.362364e-004 
1.387805e-004 
1.415596e-004 
1.445601e-004 
1.476388e-004 
1.507965e-004 
1.540577e-004 
1.573484e-004 
1.605718e-004 
1.637802e-004 
1.669404e-004 
1.699849e-004 
1.728772e-004 
1.756814e-004 
1.783213e-004 
1.807832e-004 
1.830625e-004 
1.852152e-004 
1.871480e-004 
1.889138e-004 
1.904981e-004 
1.919535e-004 
1.931847e-004 
1.942990e-004 
1.952390e-004 
1.960735e-004 
1.967006e-004 
1.972640e-004 
1.976500e-004 
1.979620e-004 
1.980771e-004 
1.981678e-004 
1.980799e-004 
1.979545e-004 
1.976659e-004 
1.974138e-004 
1.971813e-004 
1.970730e-004 
1.000000e+000 
1.000000e+000 
1.274405e-004 
1.273708e-004 
1.273066e-004 
1.273552e-004 
1.273703e-004 
1.275079e-004 
1.276958e-004 
1.279969e-004 
1.282944e-004 
1.286980e-004 
1.291605e-004 
1.296640e-004 
1.301924e-004 
1.308053e-004 
1.314582e-004 
1.321137e-004 
1.328309e-004 
1.336066e-004 
1.343997e-004 
1.352008e-004 
1.360919e-004 
1.370074e-004 
1.379350e-004 
1.389024e-004 
1.399608e-004 
1.410107e-004 
1.420925e-004 
1.432411e-004 
1.444506e-004 
1.456363e-004 
1.468851e-004 
1.481962e-004 
1.495228e-004 
1.508334e-004 
1.522213e-004 
1.536298e-004 
1.550160e-004 
1.564007e-004 
1.578369e-004 
1.592324e-004 
1.605832e-004 
1.619256e-004 
1.632542e-004 
1.644855e-004 
1.656514e-004 
1.667634e-004 
1.677823e-004 
1.686612e-004 
1.694353e-004 
1.700854e-004 
1.705784e-004 
1.708933e-004 
1.710459e-004 
1.710177e-004 
1.707947e-004 
1.703529e-004 
1.697079e-004 
1.688696e-004 
1.678167e-004 
1.665242e-004 
1.650494e-004 
1.634111e-004 
1.615574e-004 
1.595116e-004 
1.573774e-004 
1.551271e-004 
1.527123e-004 
1.502502e-004 
1.478232e-004 
1.453389e-004 
1.428331e-004 
1.404813e-004 
1.382581e-004 
1.360763e-004 
1.340932e-004 
1.324220e-004 
1.309270e-004 
1.296313e-004 
1.287317e-004 
1.281818e-004 
1.278429e-004 
1.278691e-004 
1.283480e-004 
1.291061e-004 
1.301182e-004 
1.315645e-004 
1.333464e-004 
1.353041e-004 
1.375322e-004 
1.401039e-004 
1.428009e-004 
1.455953e-004 
1.485981e-004 
1.517382e-004 
1.548164e-004 
1.579432e-004 
1.611344e-004 
1.642545e-004 
1.672147e-004 
1.701817e-004 
1.730417e-004 
1.757153e-004 
1.782114e-004 
1.806690e-004 
1.828881e-004 
1.849227e-004 
1.867935e-004 
1.885880e-004 
1.900862e-004 
1.914810e-004 
1.927113e-004 
1.938538e-004 
1.947034e-004 
1.955509e-004 
1.961996e-004 
1.967836e-004 
1.971013e-004 
1.974949e-004 
1.976332e-004 
1.977582e-004 
1.976548e-004 
1.976686e-004 
1.974229e-004 
1.972433e-004 
1.970768e-004 
1.970021e-004 
1.000000e+000 
1.000000e+000 
1.275003e-004 
1.274477e-004 
1.273765e-004 
1.273664e-004 
1.274536e-004 
1.275951e-004 
1.277569e-004 
1.280240e-004 
1.283688e-004 
1.287326e-004 
1.291400e-004 
1.296531e-004 
1.301940e-004 
1.307324e-004 
1.313489e-004 
1.320428e-004 
1.327181e-004 
1.334138e-004 
1.342149e-004 
1.350417e-004 
1.358372e-004 
1.367068e-004 
1.376747e-004 
1.386133e-004 
1.395553e-004 
1.406188e-004 
1.417290e-004 
1.427828e-004 
1.439078e-004 
1.451549e-004 
1.463727e-004 
1.475567e-004 
1.488712e-004 
1.502434e-004 
1.515263e-004 
1.528388e-004 
1.542839e-004 
1.556762e-004 
1.569702e-004 
1.583552e-004 
1.597900e-004 
1.610655e-004 
1.622873e-004 
1.636012e-004 
1.648161e-004 
1.658221e-004 
1.668326e-004 
1.678413e-004 
1.686008e-004 
1.691792e-004 
1.697722e-004 
1.701979e-004 
1.703006e-004 
1.702960e-004 
1.702310e-004 
1.698454e-004 
1.691799e-004 
1.684631e-004 
1.675560e-004 
1.662857e-004 
1.648662e-004 
1.633916e-004 
1.616362e-004 
1.596286e-004 
1.576127e-004 
1.555043e-004 
1.531581e-004 
1.507731e-004 
1.484710e-004 
1.460858e-004 
1.436504e-004 
1.413850e-004 
1.392503e-004 
1.371449e-004 
1.352292e-004 
1.336079e-004 
1.321697e-004 
1.309384e-004 
1.300641e-004 
1.295190e-004 
1.292273e-004 
1.292781e-004 
1.297191e-004 
1.304664e-004 
1.315084e-004 
1.329051e-004 
1.346130e-004 
1.365647e-004 
1.387697e-004 
1.412252e-004 
1.438581e-004 
1.466333e-004 
1.495432e-004 
1.525498e-004 
1.555932e-004 
1.586569e-004 
1.617146e-004 
1.647325e-004 
1.676719e-004 
1.705261e-004 
1.732678e-004 
1.758848e-004 
1.783516e-004 
1.806742e-004 
1.828340e-004 
1.848384e-004 
1.866669e-004 
1.883426e-004 
1.898511e-004 
1.912116e-004 
1.924039e-004 
1.934684e-004 
1.943815e-004 
1.951706e-004 
1.958146e-004 
1.963639e-004 
1.967763e-004 
1.970898e-004 
1.972856e-004 
1.974105e-004 
1.974144e-004 
1.973548e-004 
1.972445e-004 
1.970837e-004 
1.968955e-004 
1.967481e-004 
1.000000e+000 
1.000000e+000 
1.275227e-004 
1.273996e-004 
1.273745e-004 
1.273703e-004 
1.274417e-004 
1.275784e-004 
1.277752e-004 
1.280112e-004 
1.283357e-004 
1.287113e-004 
1.291172e-004 
1.295769e-004 
1.301046e-004 
1.306584e-004 
1.312353e-004 
1.318757e-004 
1.325569e-004 
1.332522e-004 
1.339830e-004 
1.347780e-004 
1.355914e-004 
1.364265e-004 
1.373139e-004 
1.382547e-004 
1.392042e-004 
1.401943e-004 
1.412433e-004 
1.423287e-004 
1.434256e-004 
1.445781e-004 
1.457801e-004 
1.470017e-004 
1.482407e-004 
1.495346e-004 
1.508559e-004 
1.521794e-004 
1.535167e-004 
1.548901e-004 
1.562588e-004 
1.576033e-004 
1.589429e-004 
1.602849e-004 
1.615752e-004 
1.628016e-004 
1.639939e-004 
1.651381e-004 
1.661646e-004 
1.670840e-004 
1.679355e-004 
1.686657e-004 
1.692055e-004 
1.696125e-004 
1.699097e-004 
1.699945e-004 
1.698459e-004 
1.695689e-004 
1.691227e-004 
1.683912e-004 
1.674538e-004 
1.664084e-004 
1.651280e-004 
1.635696e-004 
1.619087e-004 
1.601489e-004 
1.581330e-004 
1.559696e-004 
1.538339e-004 
1.515972e-004 
1.491962e-004 
1.468693e-004 
1.446593e-004 
1.423832e-004 
1.401629e-004 
1.382216e-004 
1.364237e-004 
1.346857e-004 
1.332630e-004 
1.322016e-004 
1.312931e-004 
1.306406e-004 
1.304547e-004 
1.305751e-004 
1.308907e-004 
1.316155e-004 
1.327637e-004 
1.341024e-004 
1.356940e-004 
1.376910e-004 
1.399203e-004 
1.422447e-004 
1.448251e-004 
1.476417e-004 
1.504788e-004 
1.533567e-004 
1.563983e-004 
1.594423e-004 
1.623746e-004 
1.653087e-004 
1.682523e-004 
1.710196e-004 
1.736438e-004 
1.762210e-004 
1.786659e-004 
1.808691e-004 
1.829594e-004 
1.849434e-004 
1.867231e-004 
1.882909e-004 
1.897857e-004 
1.911216e-004 
1.922616e-004 
1.932567e-004 
1.941988e-004 
1.949510e-004 
1.955684e-004 
1.960916e-004 
1.965603e-004 
1.968322e-004 
1.970459e-004 
1.971824e-004 
1.972586e-004 
1.971543e-004 
1.970719e-004 
1.969417e-004 
1.967582e-004 
1.964691e-004 
1.000000e+000 
1.000000e+000 
1.275181e-004 
1.273657e-004 
1.272927e-004 
1.273192e-004 
1.273758e-004 
1.274982e-004 
1.277234e-004 
1.279726e-004 
1.282475e-004 
1.286187e-004 
1.290550e-004 
1.294798e-004 
1.299557e-004 
1.305299e-004 
1.311081e-004 
1.316772e-004 
1.323364e-004 
1.330603e-004 
1.337445e-004 
1.344664e-004 
1.352982e-004 
1.361355e-004 
1.369368e-004 
1.378411e-004 
1.388287e-004 
1.397697e-004 
1.407304e-004 
1.418321e-004 
1.429473e-004 
1.440070e-004 
1.451646e-004 
1.464374e-004 
1.476461e-004 
1.488463e-004 
1.501912e-004 
1.515609e-004 
1.528266e-004 
1.541587e-004 
1.556049e-004 
1.569592e-004 
1.582302e-004 
1.596118e-004 
1.609923e-004 
1.621955e-004 
1.633744e-004 
1.646236e-004 
1.657165e-004 
1.666170e-004 
1.675325e-004 
1.683867e-004 
1.689652e-004 
1.693976e-004 
1.698115e-004 
1.699995e-004 
1.698882e-004 
1.696868e-004 
1.693612e-004 
1.687074e-004 
1.678279e-004 
1.668741e-004 
1.656884e-004 
1.642018e-004 
1.626066e-004 
1.609150e-004 
1.589770e-004 
1.568842e-004 
1.547839e-004 
1.525901e-004 
1.502699e-004 
1.479812e-004 
1.457608e-004 
1.435360e-004 
1.413850e-004 
1.394153e-004 
1.375985e-004 
1.359376e-004 
1.345253e-004 
1.333861e-004 
1.325037e-004 
1.319170e-004 
1.316587e-004 
1.317206e-004 
1.321104e-004 
1.328297e-004 
1.338655e-004 
1.352175e-004 
1.368696e-004 
1.387755e-004 
1.409278e-004 
1.433164e-004 
1.458782e-004 
1.485689e-004 
1.513994e-004 
1.543198e-004 
1.572569e-004 
1.602069e-004 
1.631723e-004 
1.660723e-004 
1.688769e-004 
1.716112e-004 
1.742491e-004 
1.767203e-004 
1.790546e-004 
1.812677e-004 
1.833165e-004 
1.851739e-004 
1.869041e-004 
1.884870e-004 
1.898931e-004 
1.911385e-004 
1.922836e-004 
1.932727e-004 
1.941163e-004 
1.948462e-004 
1.954944e-004 
1.959895e-004 
1.963912e-004 
1.967107e-004 
1.969507e-004 
1.970502e-004 
1.971080e-004 
1.970994e-004 
1.970091e-004 
1.968077e-004 
1.965245e-004 
1.962240e-004 
1.000000e+000 
1.000000e+000 
1.273594e-004 
1.272183e-004 
1.271521e-004 
1.271836e-004 
1.272641e-004 
1.273911e-004 
1.275763e-004 
1.278475e-004 
1.281526e-004 
1.284878e-004 
1.288888e-004 
1.293495e-004 
1.298202e-004 
1.303260e-004 
1.308990e-004 
1.315011e-004 
1.321058e-004 
1.327631e-004 
1.334796e-004 
1.342014e-004 
1.349403e-004 
1.357505e-004 
1.366017e-004 
1.374496e-004 
1.383440e-004 
1.393161e-004 
1.403050e-004 
1.413001e-004 
1.423716e-004 
1.435066e-004 
1.446356e-004 
1.457942e-004 
1.470436e-004 
1.483202e-004 
1.495758e-004 
1.508886e-004 
1.522759e-004 
1.536360e-004 
1.549736e-004 
1.563823e-004 
1.578076e-004 
1.591461e-004 
1.604725e-004 
1.618479e-004 
1.631416e-004 
1.643044e-004 
1.654660e-004 
1.665982e-004 
1.675355e-004 
1.683343e-004 
1.691174e-004 
1.697401e-004 
1.700900e-004 
1.703328e-004 
1.704940e-004 
1.703574e-004 
1.699569e-004 
1.694906e-004 
1.688300e-004 
1.678094e-004 
1.666322e-004 
1.653974e-004 
1.638674e-004 
1.620617e-004 
1.602523e-004 
1.583478e-004 
1.561567e-004 
1.539125e-004 
1.517781e-004 
1.495197e-004 
1.471510e-004 
1.449852e-004 
1.429596e-004 
1.408764e-004 
1.389715e-004 
1.374236e-004 
1.360043e-004 
1.347147e-004 
1.338462e-004 
1.333300e-004 
1.329641e-004 
1.329414e-004 
1.333961e-004 
1.340978e-004 
1.350173e-004 
1.363713e-004 
1.380644e-004 
1.398940e-004 
1.419849e-004 
1.444123e-004 
1.469571e-004 
1.495680e-004 
1.523890e-004 
1.553262e-004 
1.582014e-004 
1.610966e-004 
1.640634e-004 
1.669337e-004 
1.696601e-004 
1.723606e-004 
1.749763e-004 
1.773821e-004 
1.796438e-004 
1.818284e-004 
1.838248e-004 
1.856084e-004 
1.872811e-004 
1.888331e-004 
1.901727e-004 
1.913611e-004 
1.924650e-004 
1.934267e-004 
1.942115e-004 
1.949145e-004 
1.955383e-004 
1.960228e-004 
1.963865e-004 
1.967101e-004 
1.969419e-004 
1.970561e-004 
1.970929e-004 
1.970925e-004 
1.969624e-004 
1.967712e-004 
1.965261e-004 
1.961403e-004 
1.000000e+000 
1.000000e+000 
1.271364e-004 
1.270507e-004 
1.269767e-004 
1.269660e-004 
1.270656e-004 
1.272378e-004 
1.274077e-004 
1.276554e-004 
1.279891e-004 
1.283338e-004 
1.286926e-004 
1.291480e-004 
1.296429e-004 
1.301164e-004 
1.306450e-004 
1.312616e-004 
1.318634e-004 
1.324607e-004 
1.331561e-004 
1.338966e-004 
1.345953e-004 
1.353478e-004 
1.362088e-004 
1.370563e-004 
1.378867e-004 
1.388331e-004 
1.398487e-004 
1.408139e-004 
1.418307e-004 
1.429839e-004 
1.441349e-004 
1.452495e-004 
1.464868e-004 
1.478152e-004 
1.490799e-004 
1.503683e-004 
1.517999e-004 
1.532268e-004 
1.545744e-004 
1.560080e-004 
1.575234e-004 
1.589341e-004 
1.602964e-004 
1.617505e-004 
1.631591e-004 
1.644050e-004 
1.656392e-004 
1.668841e-004 
1.679480e-004 
1.688463e-004 
1.697230e-004 
1.704696e-004 
1.709551e-004 
1.712988e-004 
1.715462e-004 
1.715388e-004 
1.712720e-004 
1.708725e-004 
1.702809e-004 
1.693988e-004 
1.683161e-004 
1.670887e-004 
1.656326e-004 
1.639559e-004 
1.621533e-004 
1.602184e-004 
1.581281e-004 
1.559471e-004 
1.537215e-004 
1.514560e-004 
1.491904e-004 
1.469665e-004 
1.448141e-004 
1.427877e-004 
1.409143e-004 
1.392010e-004 
1.377173e-004 
1.365123e-004 
1.355498e-004 
1.348618e-004 
1.345373e-004 
1.345391e-004 
1.348131e-004 
1.354459e-004 
1.364559e-004 
1.377255e-004 
1.392621e-004 
1.411460e-004 
1.432763e-004 
1.455524e-004 
1.480498e-004 
1.507573e-004 
1.535170e-004 
1.563252e-004 
1.592514e-004 
1.621849e-004 
1.650212e-004 
1.678399e-004 
1.706358e-004 
1.732750e-004 
1.757612e-004 
1.781819e-004 
1.804563e-004 
1.825123e-004 
1.844320e-004 
1.862478e-004 
1.878560e-004 
1.892784e-004 
1.906038e-004 
1.917983e-004 
1.927932e-004 
1.936785e-004 
1.944892e-004 
1.951598e-004 
1.956829e-004 
1.961629e-004 
1.965612e-004 
1.968299e-004 
1.970090e-004 
1.971674e-004 
1.972124e-004 
1.971635e-004 
1.970478e-004 
1.968513e-004 
1.964777e-004 
1.960552e-004 
1.000000e+000 
1.000000e+000 
1.268344e-004 
1.267113e-004 
1.267026e-004 
1.267452e-004 
1.268163e-004 
1.269767e-004 
1.272024e-004 
1.274482e-004 
1.277365e-004 
1.281098e-004 
1.285051e-004 
1.289037e-004 
1.293676e-004 
1.298944e-004 
1.304069e-004 
1.309398e-004 
1.315563e-004 
1.321978e-004 
1.328148e-004 
1.334939e-004 
1.342543e-004 
1.350010e-004 
1.357502e-004 
1.366040e-004 
1.375086e-004 
1.383809e-004 
1.393126e-004 
1.403641e-004 
1.414172e-004 
1.424559e-004 
1.436143e-004 
1.448625e-004 
1.460679e-004 
1.473119e-004 
1.487032e-004 
1.501111e-004 
1.514610e-004 
1.529128e-004 
1.544753e-004 
1.559613e-004 
1.574140e-004 
1.589983e-004 
1.605831e-004 
1.620164e-004 
1.634656e-004 
1.649979e-004 
1.663753e-004 
1.675800e-004 
1.688319e-004 
1.700257e-004 
1.709287e-004 
1.717004e-004 
1.724830e-004 
1.730152e-004 
1.732138e-004 
1.733508e-004 
1.733759e-004 
1.730034e-004 
1.723813e-004 
1.717329e-004 
1.708123e-004 
1.694954e-004 
1.680962e-004 
1.666334e-004 
1.648129e-004 
1.627781e-004 
1.608132e-004 
1.587134e-004 
1.563483e-004 
1.540492e-004 
1.518826e-004 
1.495796e-004 
1.472786e-004 
1.452717e-004 
1.433888e-004 
1.415117e-004 
1.399407e-004 
1.387380e-004 
1.376649e-004 
1.368322e-004 
1.364702e-004 
1.364170e-004 
1.365588e-004 
1.371122e-004 
1.380896e-004 
1.392746e-004 
1.407243e-004 
1.425730e-004 
1.446599e-004 
1.468711e-004 
1.493308e-004 
1.520120e-004 
1.547320e-004 
1.575078e-004 
1.604110e-004 
1.633131e-004 
1.661219e-004 
1.689162e-004 
1.716770e-004 
1.742805e-004 
1.767400e-004 
1.791189e-004 
1.813435e-004 
1.833611e-004 
1.852403e-004 
1.869937e-004 
1.885505e-004 
1.899319e-004 
1.912012e-004 
1.923309e-004 
1.932878e-004 
1.941303e-004 
1.948841e-004 
1.955109e-004 
1.960161e-004 
1.964560e-004 
1.968168e-004 
1.970725e-004 
1.972482e-004 
1.973796e-004 
1.974159e-004 
1.973496e-004 
1.972118e-004 
1.970205e-004 
1.967052e-004 
1.962213e-004 
1.000000e+000 
1.000000e+000 
1.264856e-004 
1.263827e-004 
1.263529e-004 
1.264298e-004 
1.265302e-004 
1.266758e-004 
1.269152e-004 
1.271977e-004 
1.274756e-004 
1.278231e-004 
1.282418e-004 
1.286543e-004 
1.290792e-004 
1.295907e-004 
1.301273e-004 
1.306410e-004 
1.312107e-004 
1.318571e-004 
1.324849e-004 
1.331196e-004 
1.338495e-004 
1.346178e-004 
1.353572e-004 
1.361639e-004 
1.370706e-004 
1.379719e-004 
1.388809e-004 
1.399102e-004 
1.410031e-004 
1.420740e-004 
1.432181e-004 
1.444908e-004 
1.457727e-004 
1.470577e-004 
1.484672e-004 
1.499583e-004 
1.514191e-004 
1.529302e-004 
1.545603e-004 
1.561911e-004 
1.577827e-004 
1.594475e-004 
1.611579e-004 
1.627902e-004 
1.643869e-004 
1.660175e-004 
1.675808e-004 
1.690123e-004 
1.703884e-004 
1.716998e-004 
1.728409e-004 
1.738162e-004 
1.746741e-004 
1.753582e-004 
1.758128e-004 
1.760674e-004 
1.761284e-004 
1.759550e-004 
1.755355e-004 
1.748836e-004 
1.740086e-004 
1.729111e-004 
1.715766e-004 
1.700212e-004 
1.683033e-004 
1.664225e-004 
1.643478e-004 
1.621585e-004 
1.599356e-004 
1.576233e-004 
1.552353e-004 
1.529267e-004 
1.507088e-004 
1.484960e-004 
1.464159e-004 
1.446048e-004 
1.429541e-004 
1.414546e-004 
1.403117e-004 
1.395134e-004 
1.389099e-004 
1.386335e-004 
1.388156e-004 
1.392804e-004 
1.399811e-004 
1.411092e-004 
1.426008e-004 
1.442547e-004 
1.461753e-004 
1.484514e-004 
1.508678e-004 
1.533527e-004 
1.560620e-004 
1.589065e-004 
1.616846e-004 
1.644800e-004 
1.673646e-004 
1.701464e-004 
1.727651e-004 
1.753624e-004 
1.778802e-004 
1.801603e-004 
1.822860e-004 
1.843448e-004 
1.862044e-004 
1.878247e-004 
1.893457e-004 
1.907534e-004 
1.919324e-004 
1.929551e-004 
1.939226e-004 
1.947467e-004 
1.953886e-004 
1.959690e-004 
1.965014e-004 
1.968853e-004 
1.971653e-004 
1.974362e-004 
1.976277e-004 
1.976853e-004 
1.976989e-004 
1.976906e-004 
1.975459e-004 
1.972627e-004 
1.968982e-004 
1.964779e-004 
1.000000e+000 
1.000000e+000 
1.259969e-004 
1.259598e-004 
1.259587e-004 
1.260283e-004 
1.261823e-004 
1.263668e-004 
1.265656e-004 
1.268542e-004 
1.271972e-004 
1.275262e-004 
1.278920e-004 
1.283495e-004 
1.288071e-004 
1.292451e-004 
1.297627e-004 
1.303446e-004 
1.308829e-004 
1.314439e-004 
1.321156e-004 
1.327982e-004 
1.334368e-004 
1.341696e-004 
1.350043e-004 
1.357988e-004 
1.366051e-004 
1.375659e-004 
1.385754e-004 
1.395320e-004 
1.405937e-004 
1.418175e-004 
1.430175e-004 
1.442116e-004 
1.455933e-004 
1.470744e-004 
1.484819e-004 
1.499752e-004 
1.516719e-004 
1.533527e-004 
1.549651e-004 
1.567478e-004 
1.586474e-004 
1.604122e-004 
1.621674e-004 
1.641015e-004 
1.659775e-004 
1.676523e-004 
1.693871e-004 
1.711887e-004 
1.727371e-004 
1.741014e-004 
1.755379e-004 
1.768282e-004 
1.777455e-004 
1.785571e-004 
1.793468e-004 
1.797697e-004 
1.798417e-004 
1.798766e-004 
1.797097e-004 
1.790754e-004 
1.782376e-004 
1.773549e-004 
1.761092e-004 
1.744930e-004 
1.728509e-004 
1.710852e-004 
1.689473e-004 
1.666929e-004 
1.645199e-004 
1.621707e-004 
1.596458e-004 
1.572759e-004 
1.550083e-004 
1.526469e-004 
1.504208e-004 
1.485064e-004 
1.467054e-004 
1.450296e-004 
1.437357e-004 
1.427719e-004 
1.419918e-004 
1.415578e-004 
1.415666e-004 
1.418554e-004 
1.424219e-004 
1.434044e-004 
1.447243e-004 
1.462637e-004 
1.480957e-004 
1.502307e-004 
1.525338e-004 
1.549790e-004 
1.576092e-004 
1.603412e-004 
1.630880e-004 
1.658697e-004 
1.686663e-004 
1.713903e-004 
1.740233e-004 
1.765803e-004 
1.790140e-004 
1.812848e-004 
1.834116e-004 
1.853913e-004 
1.871910e-004 
1.888178e-004 
1.902937e-004 
1.916090e-004 
1.927608e-004 
1.937740e-004 
1.946593e-004 
1.954148e-004 
1.960549e-004 
1.965986e-004 
1.970481e-004 
1.974108e-004 
1.976962e-004 
1.979130e-004 
1.980595e-004 
1.981406e-004 
1.981469e-004 
1.980792e-004 
1.979244e-004 
1.977024e-004 
1.973763e-004 
1.968930e-004 
1.000000e+000 
1.000000e+000 
1.254639e-004 
1.254786e-004 
1.255238e-004 
1.255964e-004 
1.257491e-004 
1.259833e-004 
1.262158e-004 
1.264796e-004 
1.268234e-004 
1.271984e-004 
1.275589e-004 
1.279758e-004 
1.284545e-004 
1.289238e-004 
1.293992e-004 
1.299519e-004 
1.305326e-004 
1.310953e-004 
1.317084e-004 
1.323990e-004 
1.330889e-004 
1.337921e-004 
1.345875e-004 
1.354401e-004 
1.362912e-004 
1.372112e-004 
1.382394e-004 
1.393018e-004 
1.403956e-004 
1.416066e-004 
1.429123e-004 
1.442448e-004 
1.456562e-004 
1.471992e-004 
1.488057e-004 
1.504486e-004 
1.521983e-004 
1.540519e-004 
1.559330e-004 
1.578543e-004 
1.598654e-004 
1.619208e-004 
1.639600e-004 
1.660106e-004 
1.680904e-004 
1.701356e-004 
1.721001e-004 
1.740112e-004 
1.758691e-004 
1.775992e-004 
1.791617e-004 
1.805982e-004 
1.818981e-004 
1.829648e-004 
1.837858e-004 
1.844368e-004 
1.848703e-004 
1.849762e-004 
1.848197e-004 
1.844877e-004 
1.838603e-004 
1.828791e-004 
1.817111e-004 
1.803741e-004 
1.786998e-004 
1.767745e-004 
1.747973e-004 
1.726480e-004 
1.702269e-004 
1.677829e-004 
1.654005e-004 
1.628669e-004 
1.602812e-004 
1.579239e-004 
1.556688e-004 
1.533810e-004 
1.513518e-004 
1.496853e-004 
1.481266e-004 
1.467672e-004 
1.458958e-004 
1.453497e-004 
1.449619e-004 
1.450028e-004 
1.455323e-004 
1.462590e-004 
1.472423e-004 
1.487093e-004 
1.504559e-004 
1.522974e-004 
1.544432e-004 
1.568981e-004 
1.593743e-004 
1.619029e-004 
1.646489e-004 
1.674183e-004 
1.700479e-004 
1.727034e-004 
1.753873e-004 
1.778715e-004 
1.801854e-004 
1.824777e-004 
1.846167e-004 
1.864857e-004 
1.882323e-004 
1.898953e-004 
1.913167e-004 
1.925284e-004 
1.936753e-004 
1.946900e-004 
1.954807e-004 
1.961727e-004 
1.968266e-004 
1.973309e-004 
1.976913e-004 
1.980402e-004 
1.983374e-004 
1.984965e-004 
1.985926e-004 
1.986968e-004 
1.987025e-004 
1.985960e-004 
1.984526e-004 
1.982434e-004 
1.978480e-004 
1.973769e-004 
1.000000e+000 
1.000000e+000 
1.248880e-004 
1.248847e-004 
1.249890e-004 
1.251515e-004 
1.252988e-004 
1.255109e-004 
1.258099e-004 
1.261079e-004 
1.264005e-004 
1.267887e-004 
1.272159e-004 
1.276006e-004 
1.280290e-004 
1.285575e-004 
1.290604e-004 
1.295360e-004 
1.301186e-004 
1.307618e-004 
1.313400e-004 
1.319656e-004 
1.327323e-004 
1.334928e-004 
1.342132e-004 
1.350794e-004 
1.360626e-004 
1.369898e-004 
1.379715e-004 
1.391635e-004 
1.403978e-004 
1.415881e-004 
1.429567e-004 
1.445197e-004 
1.460427e-004 
1.476065e-004 
1.494298e-004 
1.513446e-004 
1.531814e-004 
1.551752e-004 
1.574015e-004 
1.595703e-004 
1.616921e-004 
1.640395e-004 
1.664662e-004 
1.687103e-004 
1.709824e-004 
1.734277e-004 
1.757254e-004 
1.777985e-004 
1.799500e-004 
1.820863e-004 
1.838787e-004 
1.854932e-004 
1.871414e-004 
1.885202e-004 
1.894860e-004 
1.903514e-004 
1.910937e-004 
1.913770e-004 
1.913288e-004 
1.912059e-004 
1.907664e-004 
1.898545e-004 
1.887725e-004 
1.875597e-004 
1.859350e-004 
1.840120e-004 
1.820525e-004 
1.798924e-004 
1.774201e-004 
1.749062e-004 
1.724153e-004 
1.697581e-004 
1.670503e-004 
1.645053e-004 
1.620231e-004 
1.595593e-004 
1.573185e-004 
1.553393e-004 
1.535198e-004 
1.519575e-004 
1.507640e-004 
1.498685e-004 
1.492677e-004 
1.490563e-004 
1.492101e-004 
1.496770e-004 
1.504978e-004 
1.516629e-004 
1.531071e-004 
1.548286e-004 
1.568125e-004 
1.589855e-004 
1.613225e-004 
1.638117e-004 
1.663769e-004 
1.689721e-004 
1.716017e-004 
1.742095e-004 
1.767285e-004 
1.791702e-004 
1.815243e-004 
1.837218e-004 
1.857563e-004 
1.876635e-004 
1.894051e-004 
1.909480e-004 
1.923383e-004 
1.935931e-004 
1.946675e-004 
1.955834e-004 
1.963953e-004 
1.970857e-004 
1.976328e-004 
1.980952e-004 
1.984928e-004 
1.987900e-004 
1.990005e-004 
1.991794e-004 
1.992970e-004 
1.993315e-004 
1.993118e-004 
1.992515e-004 
1.990919e-004 
1.988579e-004 
1.985643e-004 
1.981261e-004 
1.000000e+000 
1.000000e+000 
1.242492e-004 
1.243171e-004 
1.244120e-004 
1.246026e-004 
1.248233e-004 
1.250449e-004 
1.253230e-004 
1.256696e-004 
1.260045e-004 
1.263511e-004 
1.267705e-004 
1.272212e-004 
1.276453e-004 
1.281132e-004 
1.286530e-004 
1.291895e-004 
1.297194e-004 
1.303310e-004 
1.309977e-004 
1.316505e-004 
1.323475e-004 
1.331527e-004 
1.339929e-004 
1.348447e-004 
1.358026e-004 
1.368750e-004 
1.379754e-004 
1.391419e-004 
1.404635e-004 
1.418876e-004 
1.433520e-004 
1.449440e-004 
1.467083e-004 
1.485494e-004 
1.504532e-004 
1.525256e-004 
1.547449e-004 
1.569995e-004 
1.593321e-004 
1.618318e-004 
1.644028e-004 
1.669498e-004 
1.695705e-004 
1.722996e-004 
1.749753e-004 
1.775610e-004 
1.801922e-004 
1.828091e-004 
1.852222e-004 
1.874992e-004 
1.897631e-004 
1.918352e-004 
1.935810e-004 
1.951853e-004 
1.966726e-004 
1.977803e-004 
1.985318e-004 
1.991629e-004 
1.995247e-004 
1.993943e-004 
1.990005e-004 
1.984835e-004 
1.975450e-004 
1.961668e-004 
1.946934e-004 
1.930350e-004 
1.909101e-004 
1.885826e-004 
1.862967e-004 
1.837486e-004 
1.808974e-004 
1.781606e-004 
1.754949e-004 
1.725958e-004 
1.697452e-004 
1.672314e-004 
1.647512e-004 
1.622572e-004 
1.601721e-004 
1.584473e-004 
1.567764e-004 
1.554213e-004 
1.546255e-004 
1.540751e-004 
1.537134e-004 
1.538857e-004 
1.544922e-004 
1.552354e-004 
1.563138e-004 
1.578722e-004 
1.595998e-004 
1.614279e-004 
1.635950e-004 
1.659704e-004 
1.682963e-004 
1.707092e-004 
1.732926e-004 
1.757920e-004 
1.781506e-004 
1.805463e-004 
1.828850e-004 
1.849803e-004 
1.869437e-004 
1.888619e-004 
1.905674e-004 
1.920296e-004 
1.934055e-004 
1.946636e-004 
1.956780e-004 
1.965430e-004 
1.973576e-004 
1.980231e-004 
1.985085e-004 
1.989477e-004 
1.993446e-004 
1.996021e-004 
1.997713e-004 
1.999504e-004 
2.000642e-004 
2.000633e-004 
2.000344e-004 
2.000038e-004 
1.998579e-004 
1.995907e-004 
1.992720e-004 
1.989111e-004 
1.000000e+000 
1.000000e+000 
1.235027e-004 
1.236697e-004 
1.238316e-004 
1.240080e-004 
1.242731e-004 
1.245717e-004 
1.248319e-004 
1.251564e-004 
1.255610e-004 
1.259340e-004 
1.262966e-004 
1.267668e-004 
1.272611e-004 
1.276972e-004 
1.281972e-004 
1.288060e-004 
1.293728e-004 
1.299260e-004 
1.306204e-004 
1.313743e-004 
1.320649e-004 
1.328485e-004 
1.338041e-004 
1.347518e-004 
1.356965e-004 
1.368490e-004 
1.381356e-004 
1.393836e-004 
1.407572e-004 
1.423932e-004 
1.440790e-004 
1.457706e-004 
1.477191e-004 
1.498823e-004 
1.520181e-004 
1.542662e-004 
1.568191e-004 
1.594492e-004 
1.620285e-004 
1.648210e-004 
1.678291e-004 
1.707487e-004 
1.736541e-004 
1.767825e-004 
1.799175e-004 
1.828479e-004 
1.858140e-004 
1.888744e-004 
1.917021e-004 
1.942995e-004 
1.969238e-004 
1.994077e-004 
2.014997e-004 
2.034000e-004 
2.052162e-004 
2.066588e-004 
2.076905e-004 
2.085601e-004 
2.091673e-004 
2.092907e-004 
2.090939e-004 
2.087038e-004 
2.079162e-004 
2.067085e-004 
2.052913e-004 
2.036229e-004 
2.015740e-004 
1.992841e-004 
1.968586e-004 
1.941992e-004 
1.913392e-004 
1.884236e-004 
1.854439e-004 
1.823889e-004 
1.793715e-004 
1.764353e-004 
1.735777e-004 
1.708834e-004 
1.683992e-004 
1.661174e-004 
1.641181e-004 
1.624509e-004 
1.610687e-004 
1.600230e-004 
1.593957e-004 
1.591092e-004 
1.591326e-004 
1.595707e-004 
1.603776e-004 
1.614229e-004 
1.627698e-004 
1.644534e-004 
1.663066e-004 
1.682841e-004 
1.704809e-004 
1.727947e-004 
1.750755e-004 
1.773943e-004 
1.797710e-004 
1.820373e-004 
1.841682e-004 
1.862685e-004 
1.882576e-004 
1.900215e-004 
1.916499e-004 
1.931917e-004 
1.945258e-004 
1.956527e-004 
1.966929e-004 
1.976111e-004 
1.983231e-004 
1.989223e-004 
1.994769e-004 
1.999003e-004 
2.001874e-004 
2.004550e-004 
2.006824e-004 
2.007907e-004 
2.008452e-004 
2.009141e-004 
2.009041e-004 
2.007877e-004 
2.006549e-004 
2.005024e-004 
2.002178e-004 
1.998023e-004 
1.000000e+000 
1.000000e+000 
1.227649e-004 
1.229621e-004 
1.232028e-004 
1.234366e-004 
1.236834e-004 
1.240102e-004 
1.243524e-004 
1.246689e-004 
1.250315e-004 
1.254688e-004 