# vtk DataFile Version 2.0
2D-ADE data file 
ASCII
DATASET RECTILINEAR_GRID
DIMENSIONS 128 128 1
X_COORDINATES 128 int
0 1 2 3 4 5 6 7 8 9 10 11 12 13 14 15 16 17 18 19 20 21 22 23 24 25 26 27 28 29 30 31 32 33 34 35 36 37 38 39 40 41 42 43 44 45 46 47 48 49 50 51 52 53 54 55 56 57 58 59 60 61 62 63 64 65 66 67 68 69 70 71 72 73 74 75 76 77 78 79 80 81 82 83 84 85 86 87 88 89 90 91 92 93 94 95 96 97 98 99 100 101 102 103 104 105 106 107 108 109 110 111 112 113 114 115 116 117 118 119 120 121 122 123 124 125 126 127 
Y_COORDINATES 128 int
0 1 2 3 4 5 6 7 8 9 10 11 12 13 14 15 16 17 18 19 20 21 22 23 24 25 26 27 28 29 30 31 32 33 34 35 36 37 38 39 40 41 42 43 44 45 46 47 48 49 50 51 52 53 54 55 56 57 58 59 60 61 62 63 64 65 66 67 68 69 70 71 72 73 74 75 76 77 78 79 80 81 82 83 84 85 86 87 88 89 90 91 92 93 94 95 96 97 98 99 100 101 102 103 104 105 106 107 108 109 110 111 112 113 114 115 116 117 118 119 120 121 122 123 124 125 126 127 
Z_COORDINATES 1 int
0
POINT_DATA 16384 
SCALARS density double 1
LOOKUP_TABLE default
1.000000e+000 
1.000000e+000 
1.000000e+000 
1.000000e+000 
1.000000e+000 
1.000000e+000 
1.000000e+000 
1.000000e+000 
1.000000e+000 
1.000000e+000 
1.000000e+000 
1.000000e+000 
1.000000e+000 
1.000000e+000 
1.000000e+000 
1.000000e+000 
1.000000e+000 
1.000000e+000 
1.000000e+000 
1.000000e+000 
1.000000e+000 
1.000000e+000 
1.000000e+000 
1.000000e+000 
1.000000e+000 
1.000000e+000 
1.000000e+000 
1.000000e+000 
1.000000e+000 
1.000000e+000 
1.000000e+000 
1.000000e+000 
1.000000e+000 
1.000000e+000 
1.000000e+000 
1.000000e+000 
1.000000e+000 
1.000000e+000 
1.000000e+000 
1.000000e+000 
1.000000e+000 
1.000000e+000 
1.000000e+000 
1.000000e+000 
1.000000e+000 
1.000000e+000 
1.000000e+000 
1.000000e+000 
1.000000e+000 
1.000000e+000 
1.000000e+000 
1.000000e+000 
1.000000e+000 
1.000000e+000 
1.000000e+000 
1.000000e+000 
1.000000e+000 
1.000000e+000 
1.000000e+000 
1.000000e+000 
1.000000e+000 
1.000000e+000 
1.000000e+000 
1.000000e+000 
1.000000e+000 
1.000000e+000 
1.000000e+000 
1.000000e+000 
1.000000e+000 
1.000000e+000 
1.000000e+000 
1.000000e+000 
1.000000e+000 
1.000000e+000 
1.000000e+000 
1.000000e+000 
1.000000e+000 
1.000000e+000 
1.000000e+000 
1.000000e+000 
1.000000e+000 
1.000000e+000 
1.000000e+000 
1.000000e+000 
1.000000e+000 
1.000000e+000 
1.000000e+000 
1.000000e+000 
1.000000e+000 
1.000000e+000 
1.000000e+000 
1.000000e+000 
1.000000e+000 
1.000000e+000 
1.000000e+000 
1.000000e+000 
1.000000e+000 
1.000000e+000 
1.000000e+000 
1.000000e+000 
1.000000e+000 
1.000000e+000 
1.000000e+000 
1.000000e+000 
1.000000e+000 
1.000000e+000 
1.000000e+000 
1.000000e+000 
1.000000e+000 
1.000000e+000 
1.000000e+000 
1.000000e+000 
1.000000e+000 
1.000000e+000 
1.000000e+000 
1.000000e+000 
1.000000e+000 
1.000000e+000 
1.000000e+000 
1.000000e+000 
1.000000e+000 
1.000000e+000 
1.000000e+000 
1.000000e+000 
1.000000e+000 
1.000000e+000 
1.000000e+000 
1.000000e+000 
1.000000e+000 
1.528704e-004 
1.528708e-004 
1.529229e-004 
1.529351e-004 
1.529241e-004 
1.529261e-004 
1.529509e-004 
1.529158e-004 
1.528587e-004 
1.528205e-004 
1.527949e-004 
1.526954e-004 
1.525969e-004 
1.525357e-004 
1.524516e-004 
1.522921e-004 
1.521742e-004 
1.520785e-004 
1.519082e-004 
1.516936e-004 
1.515456e-004 
1.513571e-004 
1.510665e-004 
1.507879e-004 
1.505494e-004 
1.501932e-004 
1.497636e-004 
1.493895e-004 
1.489770e-004 
1.484132e-004 
1.478537e-004 
1.473421e-004 
1.467074e-004 
1.459710e-004 
1.453187e-004 
1.446522e-004 
1.438361e-004 
1.430375e-004 
1.423497e-004 
1.415710e-004 
1.407114e-004 
1.399907e-004 
1.393299e-004 
1.385482e-004 
1.378233e-004 
1.372805e-004 
1.367004e-004 
1.360539e-004 
1.355896e-004 
1.352368e-004 
1.347755e-004 
1.343676e-004 
1.341692e-004 
1.339433e-004 
1.336250e-004 
1.334714e-004 
1.334323e-004 
1.332564e-004 
1.330893e-004 
1.331098e-004 
1.330863e-004 
1.329236e-004 
1.328827e-004 
1.329374e-004 
1.328282e-004 
1.326781e-004 
1.326830e-004 
1.326278e-004 
1.323987e-004 
1.322437e-004 
1.321618e-004 
1.318981e-004 
1.315511e-004 
1.313187e-004 
1.310156e-004 
1.305178e-004 
1.300535e-004 
1.296440e-004 
1.290602e-004 
1.283766e-004 
1.277898e-004 
1.271525e-004 
1.263478e-004 
1.255754e-004 
1.248815e-004 
1.240700e-004 
1.231962e-004 
1.224397e-004 
1.216955e-004 
1.208500e-004 
1.200692e-004 
1.194052e-004 
1.186976e-004 
1.179691e-004 
1.173765e-004 
1.168377e-004 
1.162481e-004 
1.157236e-004 
1.153237e-004 
1.149073e-004 
1.144792e-004 
1.141572e-004 
1.138945e-004 
1.135834e-004 
1.133136e-004 
1.131326e-004 
1.129455e-004 
1.127249e-004 
1.125772e-004 
1.124681e-004 
1.123266e-004 
1.121875e-004 
1.121191e-004 
1.120459e-004 
1.119530e-004 
1.118874e-004 
1.118720e-004 
1.118358e-004 
1.118024e-004 
1.117985e-004 
1.118252e-004 
1.118310e-004 
1.118384e-004 
1.118608e-004 
1.118848e-004 
1.118722e-004 
1.000000e+000 
1.000000e+000 
1.528845e-004 
1.528639e-004 
1.528907e-004 
1.529061e-004 
1.529042e-004 
1.528775e-004 
1.528855e-004 
1.528532e-004 
1.528125e-004 
1.527438e-004 
1.527053e-004 
1.526249e-004 
1.525381e-004 
1.524344e-004 
1.523544e-004 
1.522279e-004 
1.520955e-004 
1.519556e-004 
1.518200e-004 
1.516287e-004 
1.514333e-004 
1.512268e-004 
1.509941e-004 
1.507009e-004 
1.504040e-004 
1.500780e-004 
1.496980e-004 
1.492638e-004 
1.488230e-004 
1.483308e-004 
1.477751e-004 
1.471848e-004 
1.465840e-004 
1.459207e-004 
1.452116e-004 
1.444979e-004 
1.437735e-004 
1.429978e-004 
1.422182e-004 
1.414653e-004 
1.407073e-004 
1.399314e-004 
1.392016e-004 
1.385186e-004 
1.378390e-004 
1.371851e-004 
1.366138e-004 
1.360872e-004 
1.355720e-004 
1.351204e-004 
1.347566e-004 
1.344130e-004 
1.340896e-004 
1.338492e-004 
1.336665e-004 
1.334722e-004 
1.333117e-004 
1.332283e-004 
1.331491e-004 
1.330411e-004 
1.329845e-004 
1.329697e-004 
1.329062e-004 
1.328250e-004 
1.328006e-004 
1.327578e-004 
1.326389e-004 
1.325320e-004 
1.324540e-004 
1.322931e-004 
1.320675e-004 
1.318734e-004 
1.316456e-004 
1.312995e-004 
1.309307e-004 
1.305785e-004 
1.301266e-004 
1.295766e-004 
1.290485e-004 
1.284911e-004 
1.278114e-004 
1.271029e-004 
1.264348e-004 
1.256927e-004 
1.248728e-004 
1.241018e-004 
1.233540e-004 
1.225258e-004 
1.217091e-004 
1.209798e-004 
1.202400e-004 
1.194625e-004 
1.187767e-004 
1.181596e-004 
1.175132e-004 
1.168965e-004 
1.163980e-004 
1.159145e-004 
1.154164e-004 
1.149995e-004 
1.146676e-004 
1.143046e-004 
1.139675e-004 
1.137190e-004 
1.134947e-004 
1.132295e-004 
1.130318e-004 
1.128862e-004 
1.127184e-004 
1.125374e-004 
1.124415e-004 
1.123404e-004 
1.122130e-004 
1.121137e-004 
1.120817e-004 
1.119996e-004 
1.119282e-004 
1.119074e-004 
1.119077e-004 
1.118506e-004 
1.118519e-004 
1.118848e-004 
1.118810e-004 
1.118559e-004 
1.118895e-004 
1.119032e-004 
1.000000e+000 
1.000000e+000 
1.528652e-004 
1.528890e-004 
1.528567e-004 
1.528507e-004 
1.528815e-004 
1.528732e-004 
1.528178e-004 
1.527849e-004 
1.527773e-004 
1.527097e-004 
1.526105e-004 
1.525554e-004 
1.525015e-004 
1.523696e-004 
1.522453e-004 
1.521727e-004 
1.520496e-004 
1.518565e-004 
1.517166e-004 
1.515879e-004 
1.513578e-004 
1.511040e-004 
1.509141e-004 
1.506550e-004 
1.502881e-004 
1.499580e-004 
1.496426e-004 
1.491880e-004 
1.486816e-004 
1.482413e-004 
1.477270e-004 
1.470709e-004 
1.464536e-004 
1.458718e-004 
1.451475e-004 
1.443656e-004 
1.436895e-004 
1.429740e-004 
1.421269e-004 
1.413524e-004 
1.406796e-004 
1.399019e-004 
1.390948e-004 
1.384561e-004 
1.378430e-004 
1.371262e-004 
1.365202e-004 
1.360772e-004 
1.355659e-004 
1.350347e-004 
1.347020e-004 
1.344270e-004 
1.340460e-004 
1.337648e-004 
1.336559e-004 
1.334734e-004 
1.332385e-004 
1.331775e-004 
1.331636e-004 
1.330123e-004 
1.329158e-004 
1.329644e-004 
1.329186e-004 
1.327777e-004 
1.327672e-004 
1.327817e-004 
1.326333e-004 
1.324926e-004 
1.324611e-004 
1.323189e-004 
1.320490e-004 
1.318614e-004 
1.316756e-004 
1.313130e-004 
1.309184e-004 
1.305969e-004 
1.301613e-004 
1.295860e-004 
1.290607e-004 
1.285329e-004 
1.278488e-004 
1.271286e-004 
1.264787e-004 
1.257526e-004 
1.249243e-004 
1.241573e-004 
1.234262e-004 
1.226040e-004 
1.217843e-004 
1.210639e-004 
1.203331e-004 
1.195595e-004 
1.188731e-004 
1.182616e-004 
1.176199e-004 
1.170069e-004 
1.165038e-004 
1.160242e-004 
1.155301e-004 
1.151132e-004 
1.147726e-004 
1.144172e-004 
1.140813e-004 
1.138266e-004 
1.135958e-004 
1.133440e-004 
1.131379e-004 
1.129836e-004 
1.128191e-004 
1.126500e-004 
1.125307e-004 
1.124305e-004 
1.123152e-004 
1.122113e-004 
1.121475e-004 
1.120880e-004 
1.120204e-004 
1.119688e-004 
1.119516e-004 
1.119352e-004 
1.119060e-004 
1.118954e-004 
1.119165e-004 
1.119226e-004 
1.118927e-004 
1.118951e-004 
1.000000e+000 
1.000000e+000 
1.528082e-004 
1.528348e-004 
1.528437e-004 
1.528432e-004 
1.528302e-004 
1.528264e-004 
1.528022e-004 
1.527601e-004 
1.527041e-004 
1.526613e-004 
1.525923e-004 
1.525019e-004 
1.524128e-004 
1.523346e-004 
1.522168e-004 
1.520845e-004 
1.519666e-004 
1.518376e-004 
1.516559e-004 
1.514748e-004 
1.513013e-004 
1.510800e-004 
1.508064e-004 
1.505459e-004 
1.502610e-004 
1.498972e-004 
1.495015e-004 
1.491159e-004 
1.486617e-004 
1.481275e-004 
1.475947e-004 
1.470491e-004 
1.464065e-004 
1.457241e-004 
1.450720e-004 
1.443744e-004 
1.435943e-004 
1.428433e-004 
1.421286e-004 
1.413480e-004 
1.405490e-004 
1.398410e-004 
1.391463e-004 
1.383993e-004 
1.377225e-004 
1.371528e-004 
1.365583e-004 
1.359650e-004 
1.355079e-004 
1.351128e-004 
1.346702e-004 
1.343030e-004 
1.340730e-004 
1.338242e-004 
1.335477e-004 
1.334020e-004 
1.333221e-004 
1.331605e-004 
1.330322e-004 
1.330319e-004 
1.329902e-004 
1.328671e-004 
1.328405e-004 
1.328678e-004 
1.327720e-004 
1.326580e-004 
1.326517e-004 
1.325839e-004 
1.323843e-004 
1.322430e-004 
1.321419e-004 
1.318865e-004 
1.315650e-004 
1.313285e-004 
1.310181e-004 
1.305423e-004 
1.300924e-004 
1.296796e-004 
1.291075e-004 
1.284492e-004 
1.278730e-004 
1.272457e-004 
1.264643e-004 
1.257154e-004 
1.250360e-004 
1.242446e-004 
1.233941e-004 
1.226589e-004 
1.219315e-004 
1.211047e-004 
1.203408e-004 
1.196947e-004 
1.189978e-004 
1.182795e-004 
1.176975e-004 
1.171697e-004 
1.165793e-004 
1.160589e-004 
1.156645e-004 
1.152495e-004 
1.148123e-004 
1.144945e-004 
1.142317e-004 
1.139136e-004 
1.136339e-004 
1.134608e-004 
1.132648e-004 
1.130335e-004 
1.128822e-004 
1.127803e-004 
1.126167e-004 
1.124711e-004 
1.124043e-004 
1.123248e-004 
1.121982e-004 
1.121372e-004 
1.121145e-004 
1.120473e-004 
1.119805e-004 
1.119897e-004 
1.119820e-004 
1.119392e-004 
1.119389e-004 
1.119779e-004 
1.119608e-004 
1.119409e-004 
1.000000e+000 
1.000000e+000 
1.527638e-004 
1.527646e-004 
1.528122e-004 
1.528396e-004 
1.528043e-004 
1.527767e-004 
1.527797e-004 
1.527494e-004 
1.526628e-004 
1.526077e-004 
1.525724e-004 
1.524784e-004 
1.523533e-004 
1.522842e-004 
1.521992e-004 
1.520397e-004 
1.518950e-004 
1.517981e-004 
1.516289e-004 
1.514036e-004 
1.512307e-004 
1.510481e-004 
1.507546e-004 
1.504563e-004 
1.502028e-004 
1.498595e-004 
1.494205e-004 
1.490274e-004 
1.486184e-004 
1.480718e-004 
1.474989e-004 
1.469824e-004 
1.463717e-004 
1.456511e-004 
1.449880e-004 
1.443392e-004 
1.435591e-004 
1.427681e-004 
1.420788e-004 
1.413376e-004 
1.405088e-004 
1.397834e-004 
1.391342e-004 
1.383957e-004 
1.376799e-004 
1.371235e-004 
1.365676e-004 
1.359518e-004 
1.354695e-004 
1.351067e-004 
1.346776e-004 
1.342754e-004 
1.340443e-004 
1.338272e-004 
1.335403e-004 
1.333672e-004 
1.333044e-004 
1.331622e-004 
1.330127e-004 
1.330006e-004 
1.329827e-004 
1.328662e-004 
1.328177e-004 
1.328458e-004 
1.327737e-004 
1.326563e-004 
1.326292e-004 
1.325717e-004 
1.323936e-004 
1.322374e-004 
1.321184e-004 
1.318854e-004 
1.315776e-004 
1.313133e-004 
1.309985e-004 
1.305562e-004 
1.301022e-004 
1.296582e-004 
1.291070e-004 
1.284803e-004 
1.278775e-004 
1.272356e-004 
1.264983e-004 
1.257587e-004 
1.250422e-004 
1.242688e-004 
1.234633e-004 
1.227050e-004 
1.219546e-004 
1.211734e-004 
1.204271e-004 
1.197386e-004 
1.190516e-004 
1.183804e-004 
1.177770e-004 
1.172162e-004 
1.166653e-004 
1.161643e-004 
1.157252e-004 
1.153093e-004 
1.149169e-004 
1.145802e-004 
1.142799e-004 
1.139932e-004 
1.137360e-004 
1.135192e-004 
1.133178e-004 
1.131287e-004 
1.129632e-004 
1.128220e-004 
1.126888e-004 
1.125655e-004 
1.124565e-004 
1.123697e-004 
1.122879e-004 
1.122078e-004 
1.121452e-004 
1.121107e-004 
1.120667e-004 
1.120222e-004 
1.120131e-004 
1.120217e-004 
1.119976e-004 
1.119913e-004 
1.120393e-004 
1.120601e-004 
1.000000e+000 
1.000000e+000 
1.527185e-004 
1.527667e-004 
1.527770e-004 
1.527817e-004 
1.528000e-004 
1.527856e-004 
1.527378e-004 
1.527047e-004 
1.526768e-004 
1.526004e-004 
1.525098e-004 
1.524518e-004 
1.523738e-004 
1.522417e-004 
1.521292e-004 
1.520419e-004 
1.518965e-004 
1.517155e-004 
1.515788e-004 
1.514231e-004 
1.511834e-004 
1.509472e-004 
1.507435e-004 
1.504579e-004 
1.501000e-004 
1.497810e-004 
1.494398e-004 
1.489755e-004 
1.484915e-004 
1.480493e-004 
1.475126e-004 
1.468714e-004 
1.462779e-004 
1.456845e-004 
1.449564e-004 
1.442073e-004 
1.435451e-004 
1.428179e-004 
1.419890e-004 
1.412486e-004 
1.405748e-004 
1.397939e-004 
1.390170e-004 
1.383970e-004 
1.377718e-004 
1.370621e-004 
1.364823e-004 
1.360373e-004 
1.355116e-004 
1.349936e-004 
1.346736e-004 
1.343831e-004 
1.339935e-004 
1.337269e-004 
1.336188e-004 
1.334189e-004 
1.331851e-004 
1.331392e-004 
1.331201e-004 
1.329564e-004 
1.328711e-004 
1.329342e-004 
1.328788e-004 
1.327322e-004 
1.327411e-004 
1.327639e-004 
1.325995e-004 
1.324617e-004 
1.324527e-004 
1.323048e-004 
1.320165e-004 
1.318453e-004 
1.316766e-004 
1.312937e-004 
1.308930e-004 
1.306017e-004 
1.301695e-004 
1.295724e-004 
1.290671e-004 
1.285731e-004 
1.278774e-004 
1.271536e-004 
1.265477e-004 
1.258417e-004 
1.249968e-004 
1.242552e-004 
1.235707e-004 
1.227444e-004 
1.219191e-004 
1.212439e-004 
1.205363e-004 
1.197414e-004 
1.190701e-004 
1.184998e-004 
1.178477e-004 
1.172161e-004 
1.167437e-004 
1.162795e-004 
1.157540e-004 
1.153374e-004 
1.150265e-004 
1.146566e-004 
1.142923e-004 
1.140584e-004 
1.138396e-004 
1.135561e-004 
1.133431e-004 
1.132169e-004 
1.130390e-004 
1.128414e-004 
1.127395e-004 
1.126541e-004 
1.125052e-004 
1.123938e-004 
1.123566e-004 
1.122823e-004 
1.121792e-004 
1.121461e-004 
1.121398e-004 
1.120819e-004 
1.120437e-004 
1.120694e-004 
1.120787e-004 
1.120533e-004 
1.120801e-004 
1.121442e-004 
1.000000e+000 
1.000000e+000 
1.526596e-004 
1.527374e-004 
1.527638e-004 
1.527584e-004 
1.527783e-004 
1.527839e-004 
1.527363e-004 
1.526834e-004 
1.526618e-004 
1.526060e-004 
1.525025e-004 
1.524241e-004 
1.523654e-004 
1.522465e-004 
1.521064e-004 
1.520112e-004 
1.518949e-004 
1.517077e-004 
1.515383e-004 
1.513961e-004 
1.511810e-004 
1.509162e-004 
1.506921e-004 
1.504383e-004 
1.500851e-004 
1.497264e-004 
1.493905e-004 
1.489621e-004 
1.484572e-004 
1.479836e-004 
1.474799e-004 
1.468604e-004 
1.462274e-004 
1.456293e-004 
1.449491e-004 
1.441942e-004 
1.434918e-004 
1.427936e-004 
1.420052e-004 
1.412296e-004 
1.405360e-004 
1.398080e-004 
1.390418e-004 
1.383712e-004 
1.377601e-004 
1.371041e-004 
1.364949e-004 
1.360079e-004 
1.355296e-004 
1.350387e-004 
1.346586e-004 
1.343598e-004 
1.340332e-004 
1.337490e-004 
1.335779e-004 
1.334161e-004 
1.332304e-004 
1.331236e-004 
1.330743e-004 
1.329834e-004 
1.329005e-004 
1.328857e-004 
1.328571e-004 
1.327809e-004 
1.327345e-004 
1.327054e-004 
1.326181e-004 
1.325030e-004 
1.324042e-004 
1.322667e-004 
1.320648e-004 
1.318462e-004 
1.316055e-004 
1.312974e-004 
1.309382e-004 
1.305526e-004 
1.301155e-004 
1.296163e-004 
1.290780e-004 
1.285017e-004 
1.278769e-004 
1.272129e-004 
1.265192e-004 
1.257977e-004 
1.250562e-004 
1.242984e-004 
1.235292e-004 
1.227646e-004 
1.220090e-004 
1.212556e-004 
1.205215e-004 
1.198234e-004 
1.191470e-004 
1.184913e-004 
1.178845e-004 
1.173220e-004 
1.167807e-004 
1.162792e-004 
1.158364e-004 
1.154226e-004 
1.150296e-004 
1.146884e-004 
1.143902e-004 
1.140999e-004 
1.138378e-004 
1.136241e-004 
1.134233e-004 
1.132231e-004 
1.130624e-004 
1.129288e-004 
1.127840e-004 
1.126541e-004 
1.125658e-004 
1.124729e-004 
1.123700e-004 
1.123063e-004 
1.122646e-004 
1.121957e-004 
1.121466e-004 
1.121453e-004 
1.121284e-004 
1.120919e-004 
1.121137e-004 
1.121581e-004 
1.121627e-004 
1.121905e-004 
1.000000e+000 
1.000000e+000 
1.526499e-004 
1.526904e-004 
1.527439e-004 
1.527846e-004 
1.527666e-004 
1.527462e-004 
1.527558e-004 
1.527195e-004 
1.526334e-004 
1.525850e-004 
1.525486e-004 
1.524387e-004 
1.523184e-004 
1.522567e-004 
1.521573e-004 
1.519830e-004 
1.518513e-004 
1.517517e-004 
1.515578e-004 
1.513286e-004 
1.511702e-004 
1.509691e-004 
1.506523e-004 
1.503651e-004 
1.501182e-004 
1.497456e-004 
1.492990e-004 
1.489286e-004 
1.485127e-004 
1.479396e-004 
1.473838e-004 
1.468917e-004 
1.462620e-004 
1.455335e-004 
1.449094e-004 
1.442732e-004 
1.434703e-004 
1.426992e-004 
1.420542e-004 
1.413036e-004 
1.404609e-004 
1.397785e-004 
1.391549e-004 
1.383859e-004 
1.376763e-004 
1.371672e-004 
1.366011e-004 
1.359491e-004 
1.354968e-004 
1.351618e-004 
1.346887e-004 
1.342685e-004 
1.340826e-004 
1.338572e-004 
1.335158e-004 
1.333615e-004 
1.333380e-004 
1.331514e-004 
1.329704e-004 
1.330104e-004 
1.330000e-004 
1.328232e-004 
1.327889e-004 
1.328724e-004 
1.327628e-004 
1.326022e-004 
1.326295e-004 
1.325919e-004 
1.323465e-004 
1.321923e-004 
1.321355e-004 
1.318683e-004 
1.315043e-004 
1.312908e-004 
1.310063e-004 
1.304962e-004 
1.300378e-004 
1.296650e-004 
1.290941e-004 
1.284132e-004 
1.278659e-004 
1.272727e-004 
1.264823e-004 
1.257416e-004 
1.251070e-004 
1.243319e-004 
1.234795e-004 
1.227753e-004 
1.220821e-004 
1.212565e-004 
1.205031e-004 
1.198882e-004 
1.192028e-004 
1.184801e-004 
1.179136e-004 
1.174005e-004 
1.168045e-004 
1.162811e-004 
1.158976e-004 
1.154802e-004 
1.150330e-004 
1.147149e-004 
1.144554e-004 
1.141278e-004 
1.138424e-004 
1.136697e-004 
1.134737e-004 
1.132345e-004 
1.130820e-004 
1.129809e-004 
1.128192e-004 
1.126672e-004 
1.126006e-004 
1.125245e-004 
1.124007e-004 
1.123291e-004 
1.123098e-004 
1.122501e-004 
1.121812e-004 
1.121775e-004 
1.121876e-004 
1.121592e-004 
1.121582e-004 
1.122110e-004 
1.122479e-004 
1.122725e-004 
1.000000e+000 
1.000000e+000 
1.526342e-004 
1.526770e-004 
1.527287e-004 
1.527813e-004 
1.527877e-004 
1.527611e-004 
1.527492e-004 
1.527336e-004 
1.526706e-004 
1.525950e-004 
1.525445e-004 
1.524720e-004 
1.523535e-004 
1.522500e-004 
1.521634e-004 
1.520281e-004 
1.518646e-004 
1.517320e-004 
1.515814e-004 
1.513667e-004 
1.511508e-004 
1.509516e-004 
1.506903e-004 
1.503740e-004 
1.500735e-004 
1.497483e-004 
1.493360e-004 
1.488978e-004 
1.484690e-004 
1.479718e-004 
1.473995e-004 
1.468340e-004 
1.462527e-004 
1.455870e-004 
1.448920e-004 
1.442235e-004 
1.435155e-004 
1.427496e-004 
1.420112e-004 
1.413009e-004 
1.405496e-004 
1.397980e-004 
1.391140e-004 
1.384484e-004 
1.377674e-004 
1.371439e-004 
1.365962e-004 
1.360577e-004 
1.355415e-004 
1.351125e-004 
1.347399e-004 
1.343734e-004 
1.340572e-004 
1.338225e-004 
1.336132e-004 
1.334097e-004 
1.332637e-004 
1.331708e-004 
1.330727e-004 
1.329784e-004 
1.329326e-004 
1.329035e-004 
1.328422e-004 
1.327828e-004 
1.327551e-004 
1.327033e-004 
1.325997e-004 
1.325012e-004 
1.324084e-004 
1.322486e-004 
1.320350e-004 
1.318318e-004 
1.315932e-004 
1.312587e-004 
1.308931e-004 
1.305320e-004 
1.300895e-004 
1.295593e-004 
1.290357e-004 
1.284912e-004 
1.278429e-004 
1.271598e-004 
1.265101e-004 
1.258061e-004 
1.250259e-004 
1.242827e-004 
1.235681e-004 
1.227859e-004 
1.219999e-004 
1.212969e-004 
1.205918e-004 
1.198465e-004 
1.191742e-004 
1.185776e-004 
1.179519e-004 
1.173448e-004 
1.168458e-004 
1.163746e-004 
1.158772e-004 
1.154548e-004 
1.151174e-004 
1.147587e-004 
1.144082e-004 
1.141537e-004 
1.139248e-004 
1.136587e-004 
1.134443e-004 
1.133015e-004 
1.131290e-004 
1.129446e-004 
1.128361e-004 
1.127457e-004 
1.126070e-004 
1.125040e-004 
1.124639e-004 
1.123903e-004 
1.122969e-004 
1.122744e-004 
1.122681e-004 
1.122115e-004 
1.121911e-004 
1.122350e-004 
1.122429e-004 
1.122361e-004 
1.123130e-004 
1.123985e-004 
1.000000e+000 
1.000000e+000 
1.526025e-004 
1.527162e-004 
1.527572e-004 
1.527555e-004 
1.527981e-004 
1.528235e-004 
1.527671e-004 
1.527215e-004 
1.527224e-004 
1.526589e-004 
1.525397e-004 
1.524833e-004 
1.524332e-004 
1.522858e-004 
1.521439e-004 
1.520763e-004 
1.519416e-004 
1.517227e-004 
1.515740e-004 
1.514452e-004 
1.511868e-004 
1.509100e-004 
1.507207e-004 
1.504500e-004 
1.500498e-004 
1.497139e-004 
1.494059e-004 
1.489313e-004 
1.484064e-004 
1.479857e-004 
1.474807e-004 
1.468084e-004 
1.462045e-004 
1.456622e-004 
1.449437e-004 
1.441639e-004 
1.435338e-004 
1.428575e-004 
1.420102e-004 
1.412625e-004 
1.406467e-004 
1.398848e-004 
1.390749e-004 
1.384791e-004 
1.379018e-004 
1.371684e-004 
1.365646e-004 
1.361609e-004 
1.356436e-004 
1.350778e-004 
1.347598e-004 
1.345016e-004 
1.340797e-004 
1.337755e-004 
1.336926e-004 
1.334972e-004 
1.332164e-004 
1.331654e-004 
1.331746e-004 
1.329882e-004 
1.328714e-004 
1.329559e-004 
1.329101e-004 
1.327301e-004 
1.327337e-004 
1.327788e-004 
1.325994e-004 
1.324355e-004 
1.324360e-004 
1.322918e-004 
1.319771e-004 
1.317952e-004 
1.316346e-004 
1.312400e-004 
1.308211e-004 
1.305320e-004 
1.301025e-004 
1.294967e-004 
1.289909e-004 
1.285061e-004 
1.278162e-004 
1.270989e-004 
1.265047e-004 
1.258121e-004 
1.249832e-004 
1.242578e-004 
1.235863e-004 
1.227775e-004 
1.219732e-004 
1.213093e-004 
1.206107e-004 
1.198350e-004 
1.191763e-004 
1.186048e-004 
1.179601e-004 
1.173425e-004 
1.168661e-004 
1.163945e-004 
1.158781e-004 
1.154637e-004 
1.151372e-004 
1.147656e-004 
1.144104e-004 
1.141665e-004 
1.139352e-004 
1.136615e-004 
1.134519e-004 
1.133120e-004 
1.131366e-004 
1.129546e-004 
1.128474e-004 
1.127569e-004 
1.126255e-004 
1.125234e-004 
1.124776e-004 
1.124152e-004 
1.123331e-004 
1.122978e-004 
1.122934e-004 
1.122637e-004 
1.122385e-004 
1.122643e-004 
1.123030e-004 
1.123165e-004 
1.123554e-004 
1.124492e-004 
1.000000e+000 
1.000000e+000 
1.526138e-004 
1.527050e-004 
1.527788e-004 
1.528078e-004 
1.528191e-004 
1.528350e-004 
1.528278e-004 
1.527796e-004 
1.527332e-004 
1.526981e-004 
1.526249e-004 
1.525215e-004 
1.524424e-004 
1.523595e-004 
1.522236e-004 
1.520825e-004 
1.519700e-004 
1.518190e-004 
1.516154e-004 
1.514316e-004 
1.512505e-004 
1.509961e-004 
1.507094e-004 
1.504490e-004 
1.501439e-004 
1.497529e-004 
1.493612e-004 
1.489757e-004 
1.485010e-004 
1.479631e-004 
1.474517e-004 
1.469072e-004 
1.462604e-004 
1.456037e-004 
1.449815e-004 
1.442894e-004 
1.435293e-004 
1.428211e-004 
1.421315e-004 
1.413621e-004 
1.405986e-004 
1.399268e-004 
1.392418e-004 
1.385080e-004 
1.378616e-004 
1.373025e-004 
1.367016e-004 
1.361164e-004 
1.356679e-004 
1.352579e-004 
1.348013e-004 
1.344329e-004 
1.341908e-004 
1.339184e-004 
1.336303e-004 
1.334770e-004 
1.333796e-004 
1.332024e-004 
1.330686e-004 
1.330609e-004 
1.330086e-004 
1.328791e-004 
1.328494e-004 
1.328720e-004 
1.327699e-004 
1.326485e-004 
1.326366e-004 
1.325631e-004 
1.323513e-004 
1.321964e-004 
1.320887e-004 
1.318230e-004 
1.314827e-004 
1.312364e-004 
1.309249e-004 
1.304375e-004 
1.299773e-004 
1.295731e-004 
1.290094e-004 
1.283487e-004 
1.277867e-004 
1.271885e-004 
1.264229e-004 
1.256890e-004 
1.250481e-004 
1.242912e-004 
1.234580e-004 
1.227533e-004 
1.220692e-004 
1.212636e-004 
1.205146e-004 
1.199015e-004 
1.192301e-004 
1.185132e-004 
1.179432e-004 
1.174363e-004 
1.168455e-004 
1.163151e-004 
1.159306e-004 
1.155182e-004 
1.150644e-004 
1.147398e-004 
1.144852e-004 
1.141557e-004 
1.138614e-004 
1.136929e-004 
1.135025e-004 
1.132562e-004 
1.131052e-004 
1.130174e-004 
1.128550e-004 
1.127004e-004 
1.126510e-004 
1.125851e-004 
1.124553e-004 
1.123974e-004 
1.124019e-004 
1.123390e-004 
1.122724e-004 
1.123024e-004 
1.123257e-004 
1.122864e-004 
1.123135e-004 
1.124083e-004 
1.124478e-004 
1.124780e-004 
1.000000e+000 
1.000000e+000 
1.526790e-004 
1.527225e-004 
1.527875e-004 
1.528773e-004 
1.528814e-004 
1.528475e-004 
1.528755e-004 
1.528751e-004 
1.527822e-004 
1.527202e-004 
1.527105e-004 
1.526148e-004 
1.524695e-004 
1.524065e-004 
1.523328e-004 
1.521457e-004 
1.519858e-004 
1.519000e-004 
1.517163e-004 
1.514529e-004 
1.512797e-004 
1.510998e-004 
1.507691e-004 
1.504446e-004 
1.502062e-004 
1.498488e-004 
1.493702e-004 
1.489823e-004 
1.485949e-004 
1.480217e-004 
1.474349e-004 
1.469582e-004 
1.463620e-004 
1.456188e-004 
1.449855e-004 
1.443911e-004 
1.436086e-004 
1.428186e-004 
1.421930e-004 
1.414871e-004 
1.406413e-004 
1.399476e-004 
1.393599e-004 
1.386132e-004 
1.378801e-004 
1.373721e-004 
1.368360e-004 
1.361735e-004 
1.356911e-004 
1.353658e-004 
1.349014e-004 
1.344478e-004 
1.342398e-004 
1.340256e-004 
1.336721e-004 
1.334811e-004 
1.334505e-004 
1.332717e-004 
1.330678e-004 
1.330810e-004 
1.330756e-004 
1.329006e-004 
1.328395e-004 
1.329070e-004 
1.328070e-004 
1.326386e-004 
1.326352e-004 
1.325892e-004 
1.323516e-004 
1.321756e-004 
1.320862e-004 
1.318202e-004 
1.314583e-004 
1.312104e-004 
1.309039e-004 
1.304096e-004 
1.299440e-004 
1.295362e-004 
1.289707e-004 
1.283162e-004 
1.277509e-004 
1.271412e-004 
1.263869e-004 
1.256664e-004 
1.250085e-004 
1.242482e-004 
1.234436e-004 
1.227369e-004 
1.220280e-004 
1.212429e-004 
1.205189e-004 
1.198784e-004 
1.191975e-004 
1.185183e-004 
1.179449e-004 
1.174020e-004 
1.168317e-004 
1.163300e-004 
1.159114e-004 
1.154835e-004 
1.150699e-004 
1.147419e-004 
1.144464e-004 
1.141370e-004 
1.138745e-004 
1.136716e-004 
1.134651e-004 
1.132623e-004 
1.131108e-004 
1.129830e-004 
1.128441e-004 
1.127249e-004 
1.126422e-004 
1.125640e-004 
1.124827e-004 
1.124238e-004 
1.123897e-004 
1.123582e-004 
1.123279e-004 
1.123190e-004 
1.123367e-004 
1.123553e-004 
1.123743e-004 
1.124243e-004 
1.125002e-004 
1.125694e-004 
1.000000e+000 
1.000000e+000 
1.526919e-004 
1.527907e-004 
1.528524e-004 
1.528971e-004 
1.529449e-004 
1.529534e-004 
1.529218e-004 
1.529091e-004 
1.528947e-004 
1.528193e-004 
1.527355e-004 
1.526908e-004 
1.526078e-004 
1.524656e-004 
1.523595e-004 
1.522722e-004 
1.521045e-004 
1.519128e-004 
1.517793e-004 
1.516052e-004 
1.513364e-004 
1.510962e-004 
1.508879e-004 
1.505716e-004 
1.501937e-004 
1.498807e-004 
1.495276e-004 
1.490366e-004 
1.485556e-004 
1.481284e-004 
1.475797e-004 
1.469333e-004 
1.463687e-004 
1.457943e-004 
1.450628e-004 
1.443369e-004 
1.437179e-004 
1.430056e-004 
1.421851e-004 
1.414859e-004 
1.408478e-004 
1.400691e-004 
1.393071e-004 
1.387248e-004 
1.381082e-004 
1.373849e-004 
1.368173e-004 
1.363874e-004 
1.358385e-004 
1.352968e-004 
1.349823e-004 
1.346797e-004 
1.342475e-004 
1.339615e-004 
1.338542e-004 
1.336233e-004 
1.333486e-004 
1.332996e-004 
1.332770e-004 
1.330741e-004 
1.329657e-004 
1.330401e-004 
1.329690e-004 
1.327821e-004 
1.327881e-004 
1.328188e-004 
1.326173e-004 
1.324459e-004 
1.324453e-004 
1.322826e-004 
1.319424e-004 
1.317558e-004 
1.315942e-004 
1.311726e-004 
1.307313e-004 
1.304514e-004 
1.300173e-004 
1.293792e-004 
1.288721e-004 
1.284102e-004 
1.277042e-004 
1.269655e-004 
1.263999e-004 
1.257258e-004 
1.248705e-004 
1.241519e-004 
1.235233e-004 
1.227093e-004 
1.218831e-004 
1.212543e-004 
1.205827e-004 
1.197775e-004 
1.191190e-004 
1.185898e-004 
1.179367e-004 
1.172866e-004 
1.168357e-004 
1.163867e-004 
1.158340e-004 
1.154093e-004 
1.151191e-004 
1.147378e-004 
1.143464e-004 
1.141237e-004 
1.139173e-004 
1.136118e-004 
1.133933e-004 
1.132935e-004 
1.131177e-004 
1.129068e-004 
1.128269e-004 
1.127706e-004 
1.126173e-004 
1.125138e-004 
1.125172e-004 
1.124625e-004 
1.123577e-004 
1.123578e-004 
1.123953e-004 
1.123459e-004 
1.123247e-004 
1.124065e-004 
1.124518e-004 
1.124448e-004 
1.125324e-004 
1.126652e-004 
1.000000e+000 
1.000000e+000 
1.527216e-004 
1.528713e-004 
1.529522e-004 
1.529494e-004 
1.529950e-004 
1.530596e-004 
1.530235e-004 
1.529633e-004 
1.529763e-004 
1.529474e-004 
1.528249e-004 
1.527504e-004 
1.527224e-004 
1.525940e-004 
1.524272e-004 
1.523490e-004 
1.522406e-004 
1.520156e-004 
1.518312e-004 
1.517080e-004 
1.514684e-004 
1.511600e-004 
1.509432e-004 
1.506951e-004 
1.502947e-004 
1.499158e-004 
1.496064e-004 
1.491621e-004 
1.486158e-004 
1.481642e-004 
1.476899e-004 
1.470403e-004 
1.464036e-004 
1.458624e-004 
1.451947e-004 
1.444169e-004 
1.437595e-004 
1.431197e-004 
1.423175e-004 
1.415471e-004 
1.409237e-004 
1.402161e-004 
1.394196e-004 
1.387843e-004 
1.382228e-004 
1.375331e-004 
1.368999e-004 
1.364573e-004 
1.359721e-004 
1.354159e-004 
1.350369e-004 
1.347602e-004 
1.343725e-004 
1.340368e-004 
1.338895e-004 
1.337075e-004 
1.334459e-004 
1.333325e-004 
1.333037e-004 
1.331560e-004 
1.330265e-004 
1.330393e-004 
1.329974e-004 
1.328549e-004 
1.328055e-004 
1.327958e-004 
1.326542e-004 
1.324935e-004 
1.324128e-004 
1.322532e-004 
1.319831e-004 
1.317539e-004 
1.315195e-004 
1.311560e-004 
1.307560e-004 
1.303862e-004 
1.299315e-004 
1.293848e-004 
1.288542e-004 
1.282992e-004 
1.276491e-004 
1.269804e-004 
1.263276e-004 
1.256171e-004 
1.248669e-004 
1.241455e-004 
1.234155e-004 
1.226502e-004 
1.219111e-004 
1.212030e-004 
1.204818e-004 
1.197804e-004 
1.191325e-004 
1.184993e-004 
1.178806e-004 
1.173203e-004 
1.167995e-004 
1.162909e-004 
1.158307e-004 
1.154254e-004 
1.150357e-004 
1.146751e-004 
1.143716e-004 
1.140923e-004 
1.138234e-004 
1.135999e-004 
1.134108e-004 
1.132220e-004 
1.130584e-004 
1.129348e-004 
1.128136e-004 
1.126968e-004 
1.126181e-004 
1.125525e-004 
1.124777e-004 
1.124307e-004 
1.124121e-004 
1.123803e-004 
1.123599e-004 
1.123807e-004 
1.123990e-004 
1.124074e-004 
1.124608e-004 
1.125340e-004 
1.125804e-004 
1.126580e-004 
1.000000e+000 
1.000000e+000 
1.528422e-004 
1.529119e-004 
1.530034e-004 
1.530909e-004 
1.531009e-004 
1.530969e-004 
1.531362e-004 
1.531231e-004 
1.530433e-004 
1.530124e-004 