# vtk DataFile Version 2.0
2D-ADE data file 
ASCII
DATASET RECTILINEAR_GRID
DIMENSIONS 128 128 1
X_COORDINATES 128 int
0 1 2 3 4 5 6 7 8 9 10 11 12 13 14 15 16 17 18 19 20 21 22 23 24 25 26 27 28 29 30 31 32 33 34 35 36 37 38 39 40 41 42 43 44 45 46 47 48 49 50 51 52 53 54 55 56 57 58 59 60 61 62 63 64 65 66 67 68 69 70 71 72 73 74 75 76 77 78 79 80 81 82 83 84 85 86 87 88 89 90 91 92 93 94 95 96 97 98 99 100 101 102 103 104 105 106 107 108 109 110 111 112 113 114 115 116 117 118 119 120 121 122 123 124 125 126 127 
Y_COORDINATES 128 int
0 1 2 3 4 5 6 7 8 9 10 11 12 13 14 15 16 17 18 19 20 21 22 23 24 25 26 27 28 29 30 31 32 33 34 35 36 37 38 39 40 41 42 43 44 45 46 47 48 49 50 51 52 53 54 55 56 57 58 59 60 61 62 63 64 65 66 67 68 69 70 71 72 73 74 75 76 77 78 79 80 81 82 83 84 85 86 87 88 89 90 91 92 93 94 95 96 97 98 99 100 101 102 103 104 105 106 107 108 109 110 111 112 113 114 115 116 117 118 119 120 121 122 123 124 125 126 127 
Z_COORDINATES 1 int
0
POINT_DATA 16384 
SCALARS density double 1
LOOKUP_TABLE default
1.000000e+000 
1.000000e+000 
1.000000e+000 
1.000000e+000 
1.000000e+000 
1.000000e+000 
1.000000e+000 
1.000000e+000 
1.000000e+000 
1.000000e+000 
1.000000e+000 
1.000000e+000 
1.000000e+000 
1.000000e+000 
1.000000e+000 
1.000000e+000 
1.000000e+000 
1.000000e+000 
1.000000e+000 
1.000000e+000 
1.000000e+000 
1.000000e+000 
1.000000e+000 
1.000000e+000 
1.000000e+000 
1.000000e+000 
1.000000e+000 
1.000000e+000 
1.000000e+000 
1.000000e+000 
1.000000e+000 
1.000000e+000 
1.000000e+000 
1.000000e+000 
1.000000e+000 
1.000000e+000 
1.000000e+000 
1.000000e+000 
1.000000e+000 
1.000000e+000 
1.000000e+000 
1.000000e+000 
1.000000e+000 
1.000000e+000 
1.000000e+000 
1.000000e+000 
1.000000e+000 
1.000000e+000 
1.000000e+000 
1.000000e+000 
1.000000e+000 
1.000000e+000 
1.000000e+000 
1.000000e+000 
1.000000e+000 
1.000000e+000 
1.000000e+000 
1.000000e+000 
1.000000e+000 
1.000000e+000 
1.000000e+000 
1.000000e+000 
1.000000e+000 
1.000000e+000 
1.000000e+000 
1.000000e+000 
1.000000e+000 
1.000000e+000 
1.000000e+000 
1.000000e+000 
1.000000e+000 
1.000000e+000 
1.000000e+000 
1.000000e+000 
1.000000e+000 
1.000000e+000 
1.000000e+000 
1.000000e+000 
1.000000e+000 
1.000000e+000 
1.000000e+000 
1.000000e+000 
1.000000e+000 
1.000000e+000 
1.000000e+000 
1.000000e+000 
1.000000e+000 
1.000000e+000 
1.000000e+000 
1.000000e+000 
1.000000e+000 
1.000000e+000 
1.000000e+000 
1.000000e+000 
1.000000e+000 
1.000000e+000 
1.000000e+000 
1.000000e+000 
1.000000e+000 
1.000000e+000 
1.000000e+000 
1.000000e+000 
1.000000e+000 
1.000000e+000 
1.000000e+000 
1.000000e+000 
1.000000e+000 
1.000000e+000 
1.000000e+000 
1.000000e+000 
1.000000e+000 
1.000000e+000 
1.000000e+000 
1.000000e+000 
1.000000e+000 
1.000000e+000 
1.000000e+000 
1.000000e+000 
1.000000e+000 
1.000000e+000 
1.000000e+000 
1.000000e+000 
1.000000e+000 
1.000000e+000 
1.000000e+000 
1.000000e+000 
1.000000e+000 
1.000000e+000 
1.000000e+000 
1.167837e-004 
1.166869e-004 
1.165489e-004 
1.164676e-004 
1.164201e-004 
1.165731e-004 
1.168130e-004 
1.171754e-004 
1.176025e-004 
1.181996e-004 
1.188517e-004 
1.195700e-004 
1.203662e-004 
1.212722e-004 
1.221896e-004 
1.231511e-004 
1.242064e-004 
1.253158e-004 
1.264226e-004 
1.275982e-004 
1.288760e-004 
1.301661e-004 
1.314809e-004 
1.329069e-004 
1.344184e-004 
1.359216e-004 
1.375048e-004 
1.392189e-004 
1.409732e-004 
1.427273e-004 
1.446147e-004 
1.466019e-004 
1.485738e-004 
1.505801e-004 
1.527341e-004 
1.549031e-004 
1.570183e-004 
1.592073e-004 
1.614877e-004 
1.636696e-004 
1.657923e-004 
1.679910e-004 
1.701473e-004 
1.721061e-004 
1.740219e-004 
1.759370e-004 
1.776335e-004 
1.790879e-004 
1.804968e-004 
1.817429e-004 
1.826229e-004 
1.832788e-004 
1.838248e-004 
1.840130e-004 
1.837897e-004 
1.833887e-004 
1.827468e-004 
1.816214e-004 
1.801668e-004 
1.785568e-004 
1.765743e-004 
1.741456e-004 
1.715511e-004 
1.687851e-004 
1.656265e-004 
1.622343e-004 
1.588387e-004 
1.552723e-004 
1.514799e-004 
1.477524e-004 
1.441357e-004 
1.404505e-004 
1.368531e-004 
1.335743e-004 
1.304937e-004 
1.275690e-004 
1.250471e-004 
1.229746e-004 
1.212004e-004 
1.198348e-004 
1.190397e-004 
1.187067e-004 
1.187680e-004 
1.193756e-004 
1.205230e-004 
1.220654e-004 
1.240241e-004 
1.264751e-004 
1.292892e-004 
1.323783e-004 
1.357846e-004 
1.394789e-004 
1.433077e-004 
1.472597e-004 
1.513388e-004 
1.554605e-004 
1.595173e-004 
1.635487e-004 
1.675059e-004 
1.713193e-004 
1.749424e-004 
1.784325e-004 
1.817059e-004 
1.847542e-004 
1.875636e-004 
1.901931e-004 
1.925471e-004 
1.946882e-004 
1.965932e-004 
1.983267e-004 
1.997905e-004 
2.011045e-004 
2.022009e-004 
2.031677e-004 
2.038928e-004 
2.045366e-004 
2.049699e-004 
2.053204e-004 
2.054442e-004 
2.055360e-004 
2.054217e-004 
2.052687e-004 
2.049248e-004 
2.046211e-004 
2.043456e-004 
2.042195e-004 
1.000000e+000 
1.000000e+000 
1.168701e-004 
1.167702e-004 
1.166575e-004 
1.166793e-004 
1.166471e-004 
1.168152e-004 
1.170221e-004 
1.174156e-004 
1.178025e-004 
1.183664e-004 
1.189809e-004 
1.196909e-004 
1.204248e-004 
1.212871e-004 
1.221798e-004 
1.231101e-004 
1.241028e-004 
1.251789e-004 
1.262688e-004 
1.273956e-004 
1.286199e-004 
1.298880e-004 
1.311787e-004 
1.325408e-004 
1.340091e-004 
1.354917e-004 
1.370314e-004 
1.386711e-004 
1.403917e-004 
1.421163e-004 
1.439368e-004 
1.458487e-004 
1.477970e-004 
1.497584e-004 
1.518268e-004 
1.539351e-004 
1.560383e-004 
1.581624e-004 
1.603541e-004 
1.625098e-004 
1.646275e-004 
1.667418e-004 
1.688361e-004 
1.708182e-004 
1.727218e-004 
1.745493e-004 
1.762498e-004 
1.777707e-004 
1.791456e-004 
1.803421e-004 
1.813188e-004 
1.820510e-004 
1.825484e-004 
1.827816e-004 
1.827331e-004 
1.823755e-004 
1.817182e-004 
1.807666e-004 
1.795004e-004 
1.778918e-004 
1.759977e-004 
1.738400e-004 
1.713704e-004 
1.686144e-004 
1.656839e-004 
1.625595e-004 
1.591997e-004 
1.557325e-004 
1.522545e-004 
1.486841e-004 
1.450695e-004 
1.416040e-004 
1.382768e-004 
1.350131e-004 
1.319875e-004 
1.293303e-004 
1.269167e-004 
1.247832e-004 
1.231420e-004 
1.219553e-004 
1.210906e-004 
1.207127e-004 
1.209128e-004 
1.215168e-004 
1.225006e-004 
1.240450e-004 
1.260414e-004 
1.283244e-004 
1.309819e-004 
1.340759e-004 
1.373713e-004 
1.408339e-004 
1.445590e-004 
1.484599e-004 
1.523228e-004 
1.562521e-004 
1.602433e-004 
1.641526e-004 
1.678807e-004 
1.715903e-004 
1.751499e-004 
1.784844e-004 
1.815931e-004 
1.846172e-004 
1.873442e-004 
1.898437e-004 
1.921228e-004 
1.942817e-004 
1.960894e-004 
1.977616e-004 
1.992171e-004 
2.005579e-004 
2.015608e-004 
2.025465e-004 
2.032887e-004 
2.039596e-004 
2.043250e-004 
2.047667e-004 
2.049122e-004 
2.050527e-004 
2.049253e-004 
2.049267e-004 
2.046338e-004 
2.044249e-004 
2.042240e-004 
2.041293e-004 
1.000000e+000 
1.000000e+000 
1.169977e-004 
1.168970e-004 
1.167748e-004 
1.167346e-004 
1.168104e-004 
1.169630e-004 
1.171651e-004 
1.175125e-004 
1.179568e-004 
1.184547e-004 
1.190236e-004 
1.197245e-004 
1.204649e-004 
1.212299e-004 
1.220884e-004 
1.230365e-004 
1.239761e-004 
1.249576e-004 
1.260534e-004 
1.271857e-004 
1.283042e-004 
1.295183e-004 
1.308418e-004 
1.321559e-004 
1.335002e-004 
1.349890e-004 
1.365432e-004 
1.380712e-004 
1.397011e-004 
1.414763e-004 
1.432481e-004 
1.450198e-004 
1.469493e-004 
1.489582e-004 
1.509051e-004 
1.529095e-004 
1.550643e-004 
1.571825e-004 
1.592217e-004 
1.613644e-004 
1.635602e-004 
1.655997e-004 
1.675858e-004 
1.696536e-004 
1.716052e-004 
1.733280e-004 
1.750279e-004 
1.766878e-004 
1.780548e-004 
1.791911e-004 
1.802835e-004 
1.811417e-004 
1.816046e-004 
1.818815e-004 
1.820125e-004 
1.817320e-004 
1.810768e-004 
1.802722e-004 
1.791765e-004 
1.776155e-004 
1.758037e-004 
1.738368e-004 
1.714918e-004 
1.688019e-004 
1.660169e-004 
1.630601e-004 
1.597953e-004 
1.564321e-004 
1.531026e-004 
1.496542e-004 
1.461346e-004 
1.427769e-004 
1.395561e-004 
1.363883e-004 
1.334488e-004 
1.308544e-004 
1.285099e-004 
1.264547e-004 
1.248475e-004 
1.236699e-004 
1.228593e-004 
1.225100e-004 
1.226700e-004 
1.232611e-004 
1.242737e-004 
1.257604e-004 
1.276725e-004 
1.299408e-004 
1.325634e-004 
1.355233e-004 
1.387395e-004 
1.421662e-004 
1.457771e-004 
1.495218e-004 
1.533309e-004 
1.571729e-004 
1.610060e-004 
1.647896e-004 
1.684757e-004 
1.720459e-004 
1.754657e-004 
1.787221e-004 
1.817819e-004 
1.846481e-004 
1.873016e-004 
1.897528e-004 
1.919765e-004 
1.940008e-004 
1.958131e-004 
1.974373e-004 
1.988511e-004 
2.001040e-004 
2.011727e-004 
2.020900e-004 
2.028329e-004 
2.034624e-004 
2.039319e-004 
2.042861e-004 
2.045028e-004 
2.046381e-004 
2.046351e-004 
2.045587e-004 
2.044234e-004 
2.042308e-004 
2.040089e-004 
2.038339e-004 
1.000000e+000 
1.000000e+000 
1.170812e-004 
1.168787e-004 
1.168079e-004 
1.167691e-004 
1.168372e-004 
1.169808e-004 
1.172285e-004 
1.175355e-004 
1.179697e-004 
1.184696e-004 
1.190348e-004 
1.196708e-004 
1.203989e-004 
1.211621e-004 
1.219725e-004 
1.228568e-004 
1.237945e-004 
1.247559e-004 
1.257734e-004 
1.268640e-004 
1.279862e-004 
1.291486e-004 
1.303859e-004 
1.316901e-004 
1.330249e-004 
1.344287e-004 
1.359157e-004 
1.374595e-004 
1.390461e-004 
1.407203e-004 
1.424676e-004 
1.442607e-004 
1.461056e-004 
1.480330e-004 
1.500083e-004 
1.520129e-004 
1.540588e-004 
1.561575e-004 
1.582651e-004 
1.603670e-004 
1.624744e-004 
1.645839e-004 
1.666414e-004 
1.686331e-004 
1.705753e-004 
1.724470e-004 
1.741773e-004 
1.757681e-004 
1.772459e-004 
1.785534e-004 
1.796161e-004 
1.804805e-004 
1.811616e-004 
1.815540e-004 
1.816287e-004 
1.814833e-004 
1.810744e-004 
1.802831e-004 
1.791835e-004 
1.778735e-004 
1.762273e-004 
1.742014e-004 
1.719740e-004 
1.695553e-004 
1.667922e-004 
1.637996e-004 
1.607638e-004 
1.575662e-004 
1.541525e-004 
1.507756e-004 
1.474933e-004 
1.441344e-004 
1.408359e-004 
1.378389e-004 
1.350212e-004 
1.323129e-004 
1.299865e-004 
1.281006e-004 
1.264569e-004 
1.251711e-004 
1.244635e-004 
1.241772e-004 
1.242074e-004 
1.247723e-004 
1.258828e-004 
1.273025e-004 
1.290936e-004 
1.313988e-004 
1.340334e-004 
1.368534e-004 
1.400093e-004 
1.434629e-004 
1.469870e-004 
1.505926e-004 
1.543858e-004 
1.581889e-004 
1.618820e-004 
1.655668e-004 
1.692370e-004 
1.726996e-004 
1.759871e-004 
1.791838e-004 
1.822007e-004 
1.849290e-004 
1.874986e-004 
1.899086e-004 
1.920675e-004 
1.939698e-004 
1.957568e-004 
1.973394e-004 
1.986933e-004 
1.998670e-004 
2.009582e-004 
2.018281e-004 
2.025455e-004 
2.031424e-004 
2.036690e-004 
2.039779e-004 
2.042207e-004 
2.043646e-004 
2.044429e-004 
2.043218e-004 
2.042206e-004 
2.040581e-004 
2.038427e-004 
2.035069e-004 
1.000000e+000 
1.000000e+000 
1.171319e-004 
1.168917e-004 
1.167423e-004 
1.167249e-004 
1.167756e-004 
1.169209e-004 
1.171959e-004 
1.175137e-004 
1.178970e-004 
1.183987e-004 
1.189860e-004 
1.195800e-004 
1.202525e-004 
1.210323e-004 
1.218282e-004 
1.226310e-004 
1.235405e-004 
1.245183e-004 
1.254706e-004 
1.264793e-004 
1.276111e-004 
1.287585e-004 
1.298938e-004 
1.311551e-004 
1.325161e-004 
1.338529e-004 
1.352418e-004 
1.367969e-004 
1.383881e-004 
1.399562e-004 
1.416561e-004 
1.434961e-004 
1.452994e-004 
1.471289e-004 
1.491316e-004 
1.511808e-004 
1.531524e-004 
1.552174e-004 
1.574132e-004 
1.595303e-004 
1.615793e-004 
1.637478e-004 
1.659134e-004 
1.678976e-004 
1.698500e-004 
1.718549e-004 
1.736763e-004 
1.752745e-004 
1.768491e-004 
1.783130e-004 
1.794443e-004 
1.803672e-004 
1.812006e-004 
1.817286e-004 
1.818722e-004 
1.818362e-004 
1.815801e-004 
1.808955e-004 
1.798834e-004 
1.786932e-004 
1.771666e-004 
1.752364e-004 
1.730974e-004 
1.707657e-004 
1.680972e-004 
1.651916e-004 
1.622035e-004 
1.590574e-004 
1.557333e-004 
1.524009e-004 
1.491091e-004 
1.458019e-004 
1.425733e-004 
1.395431e-004 
1.366991e-004 
1.340628e-004 
1.317384e-004 
1.297622e-004 
1.281342e-004 
1.269044e-004 
1.261098e-004 
1.257515e-004 
1.258454e-004 
1.263914e-004 
1.273748e-004 
1.287978e-004 
1.306384e-004 
1.328387e-004 
1.353859e-004 
1.382618e-004 
1.413864e-004 
1.447024e-004 
1.482120e-004 
1.518487e-004 
1.555231e-004 
1.592218e-004 
1.629365e-004 
1.665706e-004 
1.700865e-004 
1.735034e-004 
1.767866e-004 
1.798582e-004 
1.827485e-004 
1.854702e-004 
1.879775e-004 
1.902434e-004 
1.923371e-004 
1.942372e-004 
1.959173e-004 
1.973969e-004 
1.987424e-004 
1.998970e-004 
2.008782e-004 
2.017193e-004 
2.024585e-004 
2.030218e-004 
2.034770e-004 
2.038335e-004 
2.040992e-004 
2.042079e-004 
2.042676e-004 
2.042490e-004 
2.041402e-004 
2.039046e-004 
2.035666e-004 
2.032093e-004 
1.000000e+000 
1.000000e+000 
1.169759e-004 
1.167204e-004 
1.165878e-004 
1.165870e-004 
1.166507e-004 
1.167978e-004 
1.170338e-004 
1.173863e-004 
1.177941e-004 
1.182604e-004 
1.188140e-004 
1.194441e-004 
1.200993e-004 
1.208087e-004 
1.215948e-004 
1.224186e-004 
1.232587e-004 
1.241654e-004 
1.251374e-004 
1.261279e-004 
1.271552e-004 
1.282685e-004 
1.294361e-004 
1.306255e-004 
1.318873e-004 
1.332459e-004 
1.346466e-004 
1.360881e-004 
1.376341e-004 
1.392686e-004 
1.409318e-004 
1.426612e-004 
1.445081e-004 
1.464115e-004 
1.483309e-004 
1.503372e-004 
1.524403e-004 
1.545441e-004 
1.566527e-004 
1.588480e-004 
1.610722e-004 
1.632244e-004 
1.653702e-004 
1.675593e-004 
1.696598e-004 
1.716176e-004 
1.735492e-004 
1.754186e-004 
1.770568e-004 
1.785094e-004 
1.798882e-004 
1.810434e-004 
1.818554e-004 
1.824793e-004 
1.829351e-004 
1.830020e-004 
1.827069e-004 
1.822434e-004 
1.814819e-004 
1.802539e-004 
1.787612e-004 
1.771057e-004 
1.750527e-004 
1.726232e-004 
1.700969e-004 
1.673904e-004 
1.643190e-004 
1.611264e-004 
1.579890e-004 
1.546845e-004 
1.512395e-004 
1.479833e-004 
1.448683e-004 
1.417110e-004 
1.387642e-004 
1.362220e-004 
1.338694e-004 
1.317228e-004 
1.300871e-004 
1.289022e-004 
1.279764e-004 
1.275124e-004 
1.276467e-004 
1.281502e-004 
1.289983e-004 
1.304040e-004 
1.322631e-004 
1.343701e-004 
1.368429e-004 
1.397404e-004 
1.428321e-004 
1.460590e-004 
1.495478e-004 
1.531866e-004 
1.567887e-004 
1.604244e-004 
1.641264e-004 
1.677170e-004 
1.711444e-004 
1.745141e-004 
1.777570e-004 
1.807485e-004 
1.835516e-004 
1.862257e-004 
1.886605e-004 
1.908372e-004 
1.928549e-004 
1.947040e-004 
1.962995e-004 
1.977081e-004 
1.989943e-004 
2.001060e-004 
2.010157e-004 
2.018203e-004 
2.025214e-004 
2.030674e-004 
2.034783e-004 
2.038350e-004 
2.040858e-004 
2.042125e-004 
2.042493e-004 
2.042374e-004 
2.040806e-004 
2.038611e-004 
2.035700e-004 
2.031090e-004 
1.000000e+000 
1.000000e+000 
1.167371e-004 
1.165409e-004 
1.163751e-004 
1.163207e-004 
1.164115e-004 
1.166081e-004 
1.168299e-004 
1.171654e-004 
1.176047e-004 
1.180791e-004 
1.185916e-004 
1.192196e-004 
1.198932e-004 
1.205619e-004 
1.213005e-004 
1.221334e-004 
1.229557e-004 
1.237907e-004 
1.247357e-004 
1.257319e-004 
1.267010e-004 
1.277478e-004 
1.289183e-004 
1.300916e-004 
1.312766e-004 
1.326075e-004 
1.340291e-004 
1.354294e-004 
1.369196e-004 
1.385783e-004 
1.402625e-004 
1.419489e-004 
1.437978e-004 
1.457681e-004 
1.477064e-004 
1.497077e-004 
1.518847e-004 
1.540814e-004 
1.562265e-004 
1.584855e-004 
1.608424e-004 
1.631051e-004 
1.653305e-004 
1.676512e-004 
1.699171e-004 
1.720064e-004 
1.740657e-004 
1.761052e-004 
1.779221e-004 
1.795270e-004 
1.810554e-004 
1.823869e-004 
1.833826e-004 
1.841565e-004 
1.847456e-004 
1.849835e-004 
1.848617e-004 
1.845030e-004 
1.838433e-004 
1.827829e-004 
1.814122e-004 
1.797867e-004 
1.778249e-004 
1.755406e-004 
1.730330e-004 
1.703020e-004 
1.673351e-004 
1.642071e-004 
1.609733e-004 
1.576528e-004 
1.543009e-004 
1.509715e-004 
1.477092e-004 
1.445874e-004 
1.416481e-004 
1.389108e-004 
1.364633e-004 
1.343705e-004 
1.326056e-004 
1.312122e-004 
1.302937e-004 
1.298177e-004 
1.297332e-004 
1.301342e-004 
1.310399e-004 
1.323261e-004 
1.339985e-004 
1.361338e-004 
1.386177e-004 
1.413385e-004 
1.443641e-004 
1.476678e-004 
1.510742e-004 
1.545696e-004 
1.582101e-004 
1.618669e-004 
1.654239e-004 
1.689531e-004 
1.724355e-004 
1.757268e-004 
1.788278e-004 
1.818209e-004 
1.846173e-004 
1.871454e-004 
1.894890e-004 
1.916786e-004 
1.936105e-004 
1.953135e-004 
1.968778e-004 
1.982717e-004 
1.994309e-004 
2.004527e-004 
2.013721e-004 
2.021285e-004 
2.027182e-004 
2.032505e-004 
2.036852e-004 
2.039805e-004 
2.041750e-004 
2.043410e-004 
2.043816e-004 
2.043243e-004 
2.041847e-004 
2.039478e-004 
2.035114e-004 
2.030190e-004 
1.000000e+000 
1.000000e+000 
1.163574e-004 
1.161135e-004 
1.160296e-004 
1.160305e-004 
1.160942e-004 
1.162831e-004 
1.165643e-004 
1.168972e-004 
1.173016e-004 
1.178115e-004 
1.183568e-004 
1.189261e-004 
1.195750e-004 
1.202921e-004 
1.210028e-004 
1.217484e-004 
1.225827e-004 
1.234461e-004 
1.242996e-004 
1.252308e-004 
1.262511e-004 
1.272745e-004 
1.283268e-004 
1.295044e-004 
1.307520e-004 
1.320005e-004 
1.333428e-004 
1.348316e-004 
1.363551e-004 
1.379080e-004 
1.396171e-004 
1.414487e-004 
1.432806e-004 
1.451956e-004 
1.472917e-004 
1.494406e-004 
1.515738e-004 
1.538433e-004 
1.562494e-004 
1.586085e-004 
1.609609e-004 
1.634587e-004 
1.659658e-004 
1.683290e-004 
1.707043e-004 
1.731475e-004 
1.754156e-004 
1.774830e-004 
1.795561e-004 
1.815212e-004 
1.831384e-004 
1.845564e-004 
1.859076e-004 
1.869245e-004 
1.875156e-004 
1.879454e-004 
1.881593e-004 
1.878669e-004 
1.872116e-004 
1.864159e-004 
1.852342e-004 
1.835415e-004 
1.816546e-004 
1.795979e-004 
1.770818e-004 
1.742559e-004 
1.714147e-004 
1.683633e-004 
1.649820e-004 
1.616151e-004 
1.583437e-004 
1.549125e-004 
1.514764e-004 
1.483431e-004 
1.453575e-004 
1.424189e-004 
1.398435e-004 
1.377060e-004 
1.357821e-004 
1.341976e-004 
1.331904e-004 
1.326055e-004 
1.323396e-004 
1.326126e-004 
1.334334e-004 
1.345874e-004 
1.361315e-004 
1.381880e-004 
1.405866e-004 
1.432094e-004 
1.461660e-004 
1.494107e-004 
1.527515e-004 
1.561939e-004 
1.597886e-004 
1.633929e-004 
1.669078e-004 
1.703970e-004 
1.738260e-004 
1.770671e-004 
1.801289e-004 
1.830628e-004 
1.857920e-004 
1.882674e-004 
1.905538e-004 
1.926607e-004 
1.945236e-004 
1.961686e-004 
1.976571e-004 
1.989662e-004 
2.000711e-004 
2.010330e-004 
2.018776e-004 
2.025747e-004 
2.031348e-004 
2.036141e-004 
2.039999e-004 
2.042738e-004 
2.044600e-004 
2.045933e-004 
2.046214e-004 
2.045408e-004 
2.043771e-004 
2.041492e-004 
2.037810e-004 
2.032186e-004 
1.000000e+000 
1.000000e+000 
1.159109e-004 
1.156923e-004 
1.155759e-004 
1.156087e-004 
1.157048e-004 
1.158875e-004 
1.161933e-004 
1.165666e-004 
1.169632e-004 
1.174549e-004 
1.180296e-004 
1.186101e-004 
1.192194e-004 
1.199235e-004 
1.206533e-004 
1.213693e-004 
1.221535e-004 
1.230175e-004 
1.238684e-004 
1.247449e-004 
1.257330e-004 
1.267704e-004 
1.278009e-004 
1.289306e-004 
1.301845e-004 
1.314583e-004 
1.327791e-004 
1.342608e-004 
1.358381e-004 
1.374333e-004 
1.391516e-004 
1.410415e-004 
1.429788e-004 
1.449682e-004 
1.471318e-004 
1.494161e-004 
1.517090e-004 
1.540978e-004 
1.566425e-004 
1.592142e-004 
1.617741e-004 
1.644325e-004 
1.671471e-004 
1.697860e-004 
1.723895e-004 
1.750168e-004 
1.775513e-004 
1.799223e-004 
1.821991e-004 
1.843586e-004 
1.862835e-004 
1.879730e-004 
1.894656e-004 
1.906935e-004 
1.915949e-004 
1.921945e-004 
1.924904e-004 
1.924372e-004 
1.920221e-004 
1.912556e-004 
1.901452e-004 
1.886948e-004 
1.868921e-004 
1.847550e-004 
1.823491e-004 
1.796824e-004 
1.767300e-004 
1.735813e-004 
1.703314e-004 
1.669356e-004 
1.634191e-004 
1.599548e-004 
1.565699e-004 
1.531915e-004 
1.499648e-004 
1.470450e-004 
1.443363e-004 
1.418438e-004 
1.397909e-004 
1.381770e-004 
1.368605e-004 
1.359863e-004 
1.356940e-004 
1.358078e-004 
1.362850e-004 
1.373201e-004 
1.388415e-004 
1.406413e-004 
1.428212e-004 
1.454576e-004 
1.483193e-004 
1.513259e-004 
1.546207e-004 
1.580938e-004 
1.615304e-004 
1.650050e-004 
1.685714e-004 
1.720220e-004 
1.752912e-004 
1.785113e-004 
1.816105e-004 
1.844274e-004 
1.870458e-004 
1.895455e-004 
1.917918e-004 
1.937507e-004 
1.955633e-004 
1.972137e-004 
1.985928e-004 
1.997805e-004 
2.008782e-004 
2.018010e-004 
2.025192e-004 
2.031566e-004 
2.037271e-004 
2.041362e-004 
2.044334e-004 
2.047128e-004 
2.049040e-004 
2.049578e-004 
2.049623e-004 
2.049369e-004 
2.047648e-004 
2.044423e-004 
2.040142e-004 
2.035197e-004 
1.000000e+000 
1.000000e+000 
1.152669e-004 
1.151044e-004 
1.150313e-004 
1.150746e-004 
1.152297e-004 
1.154501e-004 
1.157235e-004 
1.161182e-004 
1.165838e-004 
1.170576e-004 
1.175897e-004 
1.182221e-004 
1.188577e-004 
1.194873e-004 
1.202040e-004 
1.209824e-004 
1.217232e-004 
1.225019e-004 
1.233966e-004 
1.243085e-004 
1.251986e-004 
1.262065e-004 
1.273312e-004 
1.284428e-004 
1.296054e-004 
1.309546e-004 
1.323836e-004 
1.338069e-004 
1.353841e-004 
1.371631e-004 
1.389654e-004 
1.408198e-004 
1.429120e-004 
1.451488e-004 
1.473670e-004 
1.497261e-004 
1.523315e-004 
1.549639e-004 
1.575741e-004 
1.603909e-004 
1.633499e-004 
1.661985e-004 
1.690559e-004 
1.720960e-004 
1.750729e-004 
1.778380e-004 
1.806397e-004 
1.834720e-004 
1.860063e-004 
1.883019e-004 
1.906027e-004 
1.926807e-004 
1.943007e-004 
1.957206e-004 
1.970165e-004 
1.978372e-004 
1.981922e-004 
1.983910e-004 
1.982665e-004 
1.975504e-004 
1.965060e-004 
1.952937e-004 
1.935977e-004 
1.914136e-004 
1.890924e-004 
1.865432e-004 
1.835252e-004 
1.803046e-004 
1.770903e-004 
1.736366e-004 
1.699584e-004 
1.664009e-004 
1.629254e-004 
1.593529e-004 
1.559302e-004 
1.528472e-004 
1.499224e-004 
1.471860e-004 
1.449077e-004 
1.430464e-004 
1.414718e-004 
1.403574e-004 
1.398028e-004 
1.396526e-004 
1.399124e-004 
1.407162e-004 
1.419809e-004 
1.435895e-004 
1.456077e-004 
1.480299e-004 
1.507137e-004 
1.536244e-004 
1.567845e-004 
1.600950e-004 
1.634605e-004 
1.668841e-004 
1.703262e-004 
1.736911e-004 
1.769514e-004 
1.801063e-004 
1.830997e-004 
1.858914e-004 
1.884931e-004 
1.908945e-004 
1.930658e-004 
1.950167e-004 
1.967660e-004 
1.983067e-004 
1.996440e-004 
2.008056e-004 
2.018028e-004 
2.026417e-004 
2.033434e-004 
2.039282e-004 
2.044012e-004 
2.047775e-004 
2.050686e-004 
2.052834e-004 
2.054220e-004 
2.054939e-004 
2.054859e-004 
2.053967e-004 
2.052115e-004 
2.049561e-004 
2.045815e-004 
2.040219e-004 
1.000000e+000 
1.000000e+000 
1.145430e-004 
1.144504e-004 
1.144167e-004 
1.144607e-004 
1.146284e-004 
1.149135e-004 
1.152253e-004 
1.156030e-004 
1.160824e-004 
1.166088e-004 
1.171366e-004 
1.177361e-004 
1.183993e-004 
1.190564e-004 
1.197289e-004 
1.204835e-004 
1.212640e-004 
1.220361e-004 
1.228743e-004 
1.237992e-004 
1.247358e-004 
1.257145e-004 
1.268139e-004 
1.279939e-004 
1.292080e-004 
1.305387e-004 
1.320179e-004 
1.335722e-004 
1.352144e-004 
1.370323e-004 
1.389932e-004 
1.410375e-004 
1.432269e-004 
1.456062e-004 
1.481004e-004 
1.506916e-004 
1.534490e-004 
1.563558e-004 
1.593325e-004 
1.623949e-004 
1.655804e-004 
1.688291e-004 
1.720783e-004 
1.753489e-004 
1.786410e-004 
1.818801e-004 
1.850146e-004 
1.880582e-004 
1.909954e-004 
1.937445e-004 
1.962566e-004 
1.985591e-004 
2.006326e-004 
2.023748e-004 
2.037633e-004 
2.048660e-004 
2.056325e-004 
2.059478e-004 
2.058720e-004 
2.054921e-004 
2.046888e-004 
2.034022e-004 
2.018022e-004 
1.999130e-004 
1.975695e-004 
1.948632e-004 
1.920044e-004 
1.888821e-004 
1.854046e-004 
1.818347e-004 
1.782719e-004 
1.745148e-004 
1.706775e-004 
1.670593e-004 
1.635484e-004 
1.600245e-004 
1.567988e-004 
1.539907e-004 
1.513578e-004 
1.490085e-004 
1.472458e-004 
1.459143e-004 
1.448571e-004 
1.443554e-004 
1.444697e-004 
1.449081e-004 
1.457350e-004 
1.471723e-004 
1.490041e-004 
1.510418e-004 
1.534876e-004 
1.563263e-004 
1.592571e-004 
1.623037e-004 
1.656115e-004 
1.689663e-004 
1.721976e-004 
1.754592e-004 
1.787330e-004 
1.817826e-004 
1.846353e-004 
1.874267e-004 
1.900158e-004 
1.922901e-004 
1.943955e-004 
1.963638e-004 
1.980410e-004 
1.994674e-004 
2.007857e-004 
2.019299e-004 
2.028192e-004 
2.035838e-004 
2.042828e-004 
2.048125e-004 
2.051870e-004 
2.055388e-004 
2.058276e-004 
2.059759e-004 
2.060597e-004 
2.061466e-004 
2.061310e-004 
2.060058e-004 
2.058357e-004 
2.055862e-004 
2.051359e-004 
2.046058e-004 
1.000000e+000 
1.000000e+000 
1.137147e-004 
1.136093e-004 
1.136602e-004 
1.138052e-004 
1.139736e-004 
1.142512e-004 
1.146408e-004 
1.150567e-004 
1.154964e-004 
1.160512e-004 
1.166483e-004 
1.172163e-004 
1.178407e-004 
1.185635e-004 
1.192576e-004 
1.199373e-004 
1.207304e-004 
1.215822e-004 
1.223815e-004 
1.232531e-004 
1.242800e-004 
1.253191e-004 
1.263563e-004 
1.275792e-004 
1.289499e-004 
1.303108e-004 
1.317857e-004 
1.335226e-004 
1.353521e-004 
1.372060e-004 
1.393074e-004 
1.416619e-004 
1.440412e-004 
1.465364e-004 
1.493558e-004 
1.523238e-004 
1.552769e-004 
1.584475e-004 
1.618952e-004 
1.653251e-004 
1.687465e-004 
1.724188e-004 
1.761804e-004 
1.797638e-004 
1.833699e-004 
1.871276e-004 
1.907039e-004 
1.940132e-004 
1.973458e-004 
2.005947e-004 
2.034212e-004 
2.059825e-004 
2.084796e-004 
2.106005e-004 
2.121949e-004 
2.135691e-004 
2.146949e-004 
2.152318e-004 
2.153052e-004 
2.151703e-004 
2.145844e-004 
2.133930e-004 
2.119012e-004 
2.101514e-004 
2.078673e-004 
2.051701e-004 
2.023286e-004 
1.991868e-004 
1.956449e-004 
1.919856e-004 
1.882839e-004 
1.843652e-004 
1.803619e-004 
1.765008e-004 
1.726967e-004 
1.689252e-004 
1.654065e-004 
1.621923e-004 
1.591990e-004 
1.565419e-004 
1.543417e-004 
1.525398e-004 
1.511483e-004 
1.502674e-004 
1.498748e-004 
1.499272e-004 
1.504665e-004 
1.514750e-004 
1.528851e-004 
1.546923e-004 
1.568667e-004 
1.593213e-004 
1.620244e-004 
1.649484e-004 
1.679962e-004 
1.711114e-004 
1.742867e-004 
1.774460e-004 
1.805092e-004 
1.834822e-004 
1.863419e-004 
1.890073e-004 
1.914705e-004 
1.937647e-004 
1.958442e-004 
1.976757e-004 
1.993104e-004 
2.007654e-004 
2.019957e-004 
2.030306e-004 
2.039302e-004 
2.046789e-004 
2.052591e-004 
2.057379e-004 
2.061380e-004 
2.064263e-004 
2.066208e-004 
2.067816e-004 
2.068786e-004 
2.068917e-004 
2.068489e-004 
2.067648e-004 
2.065774e-004 
2.063128e-004 
2.059805e-004 
2.054850e-004 
1.000000e+000 
1.000000e+000 
1.127971e-004 
1.127752e-004 
1.128177e-004 
1.130046e-004 
1.132583e-004 
1.135538e-004 
1.139395e-004 
1.144187e-004 
1.149043e-004 
1.154256e-004 
1.160312e-004 
1.166711e-004 
1.172906e-004 
1.179636e-004 
1.187059e-004 
1.194449e-004 
1.201892e-004 
1.210264e-004 
1.219233e-004 
1.228263e-004 
1.238046e-004 
1.249163e-004 
1.260919e-004 
1.273284e-004 
1.287219e-004 
1.302745e-004 
1.319130e-004 
1.336904e-004 
1.356865e-004 
1.378488e-004 
1.401307e-004 
1.426205e-004 
1.453504e-004 
1.482304e-004 
1.512541e-004 
1.545152e-004 
1.579813e-004 
1.615456e-004 
1.652448e-004 
1.691493e-004 
1.731560e-004 
1.771672e-004 
1.812635e-004 
1.854631e-004 
1.895977e-004 
1.936197e-004 
1.976461e-004 
2.016060e-004 
2.053017e-004 
2.087867e-004 
2.121714e-004 
2.152702e-004 
2.179389e-004 
2.203520e-004 
2.225287e-004 
2.242012e-004 
2.253856e-004 
2.263148e-004 
2.268394e-004 
2.267325e-004 
2.262225e-004 
2.254535e-004 
2.241280e-004 
2.222296e-004 
2.201097e-004 
2.176852e-004 
2.146794e-004 
2.113654e-004 
2.079994e-004 
2.042861e-004 
2.001961e-004 
1.961630e-004 
1.921560e-004 
1.878837e-004 
1.836467e-004 
1.797493e-004 
1.759017e-004 
1.720751e-004 
1.687108e-004 
1.657714e-004 
1.629655e-004 
1.605732e-004 
1.588463e-004 
1.574772e-004 
1.564228e-004 
1.560336e-004 
1.562050e-004 
1.566430e-004 
1.575485e-004 
1.590527e-004 
1.608349e-004 
1.628249e-004 
1.652458e-004 
1.679452e-004 
1.706584e-004 
1.735110e-004 
1.765617e-004 
1.795424e-004 
1.823923e-004 
1.852718e-004 
1.880695e-004 
1.905985e-004 
1.929660e-004 
1.952440e-004 
1.972638e-004 
1.990015e-004 
2.006087e-004 
2.020499e-004 
2.032092e-004 
2.041867e-004 
2.050774e-004 
2.057887e-004 
2.063014e-004 
2.067501e-004 
2.071379e-004 
2.073784e-004 
2.075284e-004 
2.076825e-004 
2.077675e-004 
2.077427e-004 
2.076916e-004 
2.076359e-004 
2.074641e-004 
2.071691e-004 
2.068103e-004 
2.064047e-004 
1.000000e+000 
1.000000e+000 
1.117121e-004 
1.117972e-004 
1.119260e-004 
1.121206e-004 
1.124353e-004 
1.128142e-004 
1.131918e-004 
1.136679e-004 
1.142356e-004 
1.147866e-004 
1.153475e-004 
1.160233e-004 
1.167173e-004 
1.173622e-004 
1.180818e-004 
1.189069e-004 
1.196915e-004 
1.204851e-004 
1.214368e-004 
1.224593e-004 
1.234495e-004 
1.245786e-004 
1.259144e-004 
1.272841e-004 
1.287157e-004 
1.304212e-004 
1.323174e-004 
1.342484e-004 
1.363923e-004 
1.388757e-004 
1.414835e-004 
1.441883e-004 
1.472394e-004 
1.505804e-004 
1.539712e-004 
1.575574e-004 
1.615168e-004 
1.656083e-004 
1.697044e-004 
1.740613e-004 
1.786610e-004 
1.831889e-004 
1.877132e-004 
1.924553e-004 
1.971803e-004 
2.016679e-004 
2.061480e-004 
2.106624e-004 
2.148711e-004 
2.187688e-004 
2.226014e-004 
2.261893e-004 
2.292736e-004 
2.320485e-004 
2.346131e-004 
2.366718e-004 
2.381848e-004 
2.393970e-004 
2.402043e-004 
2.403855e-004 
2.401052e-004 
2.394896e-004 
2.383364e-004 
2.366287e-004 
2.345806e-004 
2.321540e-004 
2.292284e-004 
2.259524e-004 
2.224377e-004 
2.185960e-004 
2.144750e-004 
2.102304e-004 
2.058646e-004 
2.013836e-004 
1.969162e-004 
1.925181e-004 
1.882040e-004 
1.840781e-004 
1.802005e-004 
1.765780e-004 
1.733104e-004 
1.704607e-004 
1.679907e-004 
1.659670e-004 
1.644827e-004 
1.634617e-004 
1.628790e-004 
1.628457e-004 
1.633103e-004 
1.641359e-004 
1.653857e-004 
1.670843e-004 
1.690479e-004 
1.712231e-004 
1.736944e-004 
1.763379e-004 
1.789894e-004 
1.817119e-004 
1.845073e-004 
1.871902e-004 
1.897304e-004 
1.922240e-004 
1.945761e-004 
1.966686e-004 
1.985922e-004 
2.003888e-004 
2.019340e-004 
2.032341e-004 
2.044115e-004 
2.054294e-004 
2.062090e-004 
2.068513e-004 
2.074261e-004 
2.078498e-004 
2.081251e-004 
2.083729e-004 
2.085734e-004 
2.086524e-004 
2.086790e-004 
2.087212e-004 
2.086857e-004 
2.085458e-004 
2.083904e-004 
2.082162e-004 
2.079086e-004 
2.074573e-004 
1.000000e+000 
1.000000e+000 
1.105909e-004 
1.107371e-004 
1.109568e-004 
1.112115e-004 
1.115243e-004 
1.119565e-004 
1.124255e-004 
1.128983e-004 
1.134435e-004 
1.140757e-004 