# vtk DataFile Version 2.0
2D-ADE data file 
ASCII
DATASET RECTILINEAR_GRID
DIMENSIONS 128 128 1
X_COORDINATES 128 int
0 1 2 3 4 5 6 7 8 9 10 11 12 13 14 15 16 17 18 19 20 21 22 23 24 25 26 27 28 29 30 31 32 33 34 35 36 37 38 39 40 41 42 43 44 45 46 47 48 49 50 51 52 53 54 55 56 57 58 59 60 61 62 63 64 65 66 67 68 69 70 71 72 73 74 75 76 77 78 79 80 81 82 83 84 85 86 87 88 89 90 91 92 93 94 95 96 97 98 99 100 101 102 103 104 105 106 107 108 109 110 111 112 113 114 115 116 117 118 119 120 121 122 123 124 125 126 127 
Y_COORDINATES 128 int
0 1 2 3 4 5 6 7 8 9 10 11 12 13 14 15 16 17 18 19 20 21 22 23 24 25 26 27 28 29 30 31 32 33 34 35 36 37 38 39 40 41 42 43 44 45 46 47 48 49 50 51 52 53 54 55 56 57 58 59 60 61 62 63 64 65 66 67 68 69 70 71 72 73 74 75 76 77 78 79 80 81 82 83 84 85 86 87 88 89 90 91 92 93 94 95 96 97 98 99 100 101 102 103 104 105 106 107 108 109 110 111 112 113 114 115 116 117 118 119 120 121 122 123 124 125 126 127 
Z_COORDINATES 1 int
0
POINT_DATA 16384 
SCALARS density double 1
LOOKUP_TABLE default
1.000000e+000 
1.000000e+000 
1.000000e+000 
1.000000e+000 
1.000000e+000 
1.000000e+000 
1.000000e+000 
1.000000e+000 
1.000000e+000 
1.000000e+000 
1.000000e+000 
1.000000e+000 
1.000000e+000 
1.000000e+000 
1.000000e+000 
1.000000e+000 
1.000000e+000 
1.000000e+000 
1.000000e+000 
1.000000e+000 
1.000000e+000 
1.000000e+000 
1.000000e+000 
1.000000e+000 
1.000000e+000 
1.000000e+000 
1.000000e+000 
1.000000e+000 
1.000000e+000 
1.000000e+000 
1.000000e+000 
1.000000e+000 
1.000000e+000 
1.000000e+000 
1.000000e+000 
1.000000e+000 
1.000000e+000 
1.000000e+000 
1.000000e+000 
1.000000e+000 
1.000000e+000 
1.000000e+000 
1.000000e+000 
1.000000e+000 
1.000000e+000 
1.000000e+000 
1.000000e+000 
1.000000e+000 
1.000000e+000 
1.000000e+000 
1.000000e+000 
1.000000e+000 
1.000000e+000 
1.000000e+000 
1.000000e+000 
1.000000e+000 
1.000000e+000 
1.000000e+000 
1.000000e+000 
1.000000e+000 
1.000000e+000 
1.000000e+000 
1.000000e+000 
1.000000e+000 
1.000000e+000 
1.000000e+000 
1.000000e+000 
1.000000e+000 
1.000000e+000 
1.000000e+000 
1.000000e+000 
1.000000e+000 
1.000000e+000 
1.000000e+000 
1.000000e+000 
1.000000e+000 
1.000000e+000 
1.000000e+000 
1.000000e+000 
1.000000e+000 
1.000000e+000 
1.000000e+000 
1.000000e+000 
1.000000e+000 
1.000000e+000 
1.000000e+000 
1.000000e+000 
1.000000e+000 
1.000000e+000 
1.000000e+000 
1.000000e+000 
1.000000e+000 
1.000000e+000 
1.000000e+000 
1.000000e+000 
1.000000e+000 
1.000000e+000 
1.000000e+000 
1.000000e+000 
1.000000e+000 
1.000000e+000 
1.000000e+000 
1.000000e+000 
1.000000e+000 
1.000000e+000 
1.000000e+000 
1.000000e+000 
1.000000e+000 
1.000000e+000 
1.000000e+000 
1.000000e+000 
1.000000e+000 
1.000000e+000 
1.000000e+000 
1.000000e+000 
1.000000e+000 
1.000000e+000 
1.000000e+000 
1.000000e+000 
1.000000e+000 
1.000000e+000 
1.000000e+000 
1.000000e+000 
1.000000e+000 
1.000000e+000 
1.000000e+000 
1.000000e+000 
1.000000e+000 
1.000000e+000 
1.264874e-004 
1.264166e-004 
1.263375e-004 
1.263141e-004 
1.263154e-004 
1.264580e-004 
1.266757e-004 
1.269626e-004 
1.272929e-004 
1.277448e-004 
1.282421e-004 
1.287643e-004 
1.293530e-004 
1.300269e-004 
1.307079e-004 
1.314072e-004 
1.321977e-004 
1.330290e-004 
1.338496e-004 
1.347193e-004 
1.356871e-004 
1.366500e-004 
1.376193e-004 
1.386797e-004 
1.398122e-004 
1.409095e-004 
1.420611e-004 
1.433219e-004 
1.445999e-004 
1.458453e-004 
1.471984e-004 
1.486294e-004 
1.500176e-004 
1.514114e-004 
1.529337e-004 
1.544520e-004 
1.558934e-004 
1.573922e-004 
1.589739e-004 
1.604473e-004 
1.618534e-004 
1.633380e-004 
1.647877e-004 
1.660482e-004 
1.672816e-004 
1.685407e-004 
1.696104e-004 
1.704728e-004 
1.713341e-004 
1.720847e-004 
1.725249e-004 
1.728049e-004 
1.730459e-004 
1.730054e-004 
1.726343e-004 
1.721719e-004 
1.715584e-004 
1.705543e-004 
1.693157e-004 
1.680174e-004 
1.664413e-004 
1.645127e-004 
1.625085e-004 
1.604186e-004 
1.580160e-004 
1.554529e-004 
1.529505e-004 
1.503318e-004 
1.475306e-004 
1.448256e-004 
1.422504e-004 
1.396115e-004 
1.370505e-004 
1.347852e-004 
1.326810e-004 
1.306796e-004 
1.290155e-004 
1.277249e-004 
1.266431e-004 
1.258691e-004 
1.255605e-004 
1.256018e-004 
1.259179e-004 
1.266606e-004 
1.278272e-004 
1.292709e-004 
1.310170e-004 
1.331525e-004 
1.355561e-004 
1.381448e-004 
1.409759e-004 
1.440345e-004 
1.471764e-004 
1.504016e-004 
1.537327e-004 
1.570947e-004 
1.603900e-004 
1.636698e-004 
1.668995e-004 
1.700114e-004 
1.729681e-004 
1.758332e-004 
1.785296e-004 
1.810441e-004 
1.833713e-004 
1.855674e-004 
1.875388e-004 
1.893393e-004 
1.909537e-004 
1.924352e-004 
1.936886e-004 
1.948222e-004 
1.957776e-004 
1.966253e-004 
1.972623e-004 
1.978341e-004 
1.982253e-004 
1.985416e-004 
1.986582e-004 
1.987496e-004 
1.986598e-004 
1.985321e-004 
1.982387e-004 
1.979820e-004 
1.977456e-004 
1.976356e-004 
1.000000e+000 
1.000000e+000 
1.265447e-004 
1.264727e-004 
1.264046e-004 
1.264512e-004 
1.264628e-004 
1.266032e-004 
1.267932e-004 
1.271022e-004 
1.274076e-004 
1.278248e-004 
1.283004e-004 
1.288215e-004 
1.293677e-004 
1.300021e-004 
1.306761e-004 
1.313555e-004 
1.320971e-004 
1.328994e-004 
1.337191e-004 
1.345491e-004 
1.354701e-004 
1.364171e-004 
1.373771e-004 
1.383795e-004 
1.394743e-004 
1.405624e-004 
1.416844e-004 
1.428760e-004 
1.441301e-004 
1.453625e-004 
1.466608e-004 
1.480236e-004 
1.494037e-004 
1.507700e-004 
1.522163e-004 
1.536845e-004 
1.551317e-004 
1.565793e-004 
1.580797e-004 
1.595397e-004 
1.609554e-004 
1.623631e-004 
1.637564e-004 
1.650510e-004 
1.662791e-004 
1.674513e-004 
1.685275e-004 
1.694602e-004 
1.702846e-004 
1.709803e-004 
1.715136e-004 
1.718630e-004 
1.720439e-004 
1.720369e-004 
1.718276e-004 
1.713917e-004 
1.707442e-004 
1.698948e-004 
1.688222e-004 
1.675010e-004 
1.659886e-004 
1.643041e-004 
1.623957e-004 
1.602871e-004 
1.580824e-004 
1.557549e-004 
1.532567e-004 
1.507060e-004 
1.481861e-004 
1.456059e-004 
1.430021e-004 
1.405517e-004 
1.382306e-004 
1.359527e-004 
1.338768e-004 
1.321175e-004 
1.305403e-004 
1.291690e-004 
1.282022e-004 
1.275941e-004 
1.272065e-004 
1.271945e-004 
1.276459e-004 
1.283875e-004 
1.293938e-004 
1.308454e-004 
1.326428e-004 
1.346258e-004 
1.368882e-004 
1.395027e-004 
1.422491e-004 
1.450993e-004 
1.481629e-004 
1.513675e-004 
1.545127e-004 
1.577083e-004 
1.609685e-004 
1.641570e-004 
1.671841e-004 
1.702161e-004 
1.731377e-004 
1.758699e-004 
1.784206e-004 
1.809289e-004 
1.831939e-004 
1.852708e-004 
1.871790e-004 
1.890071e-004 
1.905342e-004 
1.919550e-004 
1.932068e-004 
1.943684e-004 
1.952329e-004 
1.960940e-004 
1.967522e-004 
1.973450e-004 
1.976679e-004 
1.980667e-004 
1.982063e-004 
1.983332e-004 
1.982281e-004 
1.982411e-004 
1.979912e-004 
1.978091e-004 
1.976394e-004 
1.975629e-004 
1.000000e+000 
1.000000e+000 
1.266101e-004 
1.265534e-004 
1.264782e-004 
1.264659e-004 
1.265525e-004 
1.266953e-004 
1.268608e-004 
1.271349e-004 
1.274883e-004 
1.278636e-004 
1.282850e-004 
1.288143e-004 
1.293724e-004 
1.299305e-004 
1.305682e-004 
1.312845e-004 
1.319832e-004 
1.327042e-004 
1.335317e-004 
1.343857e-004 
1.352101e-004 
1.361105e-004 
1.371102e-004 
1.380821e-004 
1.390597e-004 
1.401607e-004 
1.413099e-004 
1.424052e-004 
1.435742e-004 
1.448671e-004 
1.461328e-004 
1.473673e-004 
1.487347e-004 
1.501614e-004 
1.515011e-004 
1.528726e-004 
1.543781e-004 
1.558320e-004 
1.571892e-004 
1.586385e-004 
1.601376e-004 
1.614776e-004 
1.627638e-004 
1.641413e-004 
1.654181e-004 
1.664843e-004 
1.675527e-004 
1.686160e-004 
1.694263e-004 
1.700512e-004 
1.706858e-004 
1.711473e-004 
1.712796e-004 
1.712978e-004 
1.712484e-004 
1.708705e-004 
1.702045e-004 
1.694788e-004 
1.685542e-004 
1.672574e-004 
1.658028e-004 
1.642844e-004 
1.624767e-004 
1.604088e-004 
1.583250e-004 
1.561418e-004 
1.537145e-004 
1.512434e-004 
1.488506e-004 
1.463716e-004 
1.438404e-004 
1.414785e-004 
1.392477e-004 
1.370481e-004 
1.350412e-004 
1.333333e-004 
1.318139e-004 
1.305084e-004 
1.295679e-004 
1.289650e-004 
1.286253e-004 
1.286383e-004 
1.290518e-004 
1.297824e-004 
1.308187e-004 
1.322201e-004 
1.339426e-004 
1.359187e-004 
1.381572e-004 
1.406538e-004 
1.433348e-004 
1.461644e-004 
1.491333e-004 
1.522024e-004 
1.553110e-004 
1.584413e-004 
1.615659e-004 
1.646500e-004 
1.676544e-004 
1.705713e-004 
1.733727e-004 
1.760463e-004 
1.785660e-004 
1.809373e-004 
1.831416e-004 
1.851866e-004 
1.870512e-004 
1.887592e-004 
1.902959e-004 
1.916812e-004 
1.928946e-004 
1.939771e-004 
1.949054e-004 
1.957072e-004 
1.963611e-004 
1.969186e-004 
1.973369e-004 
1.976548e-004 
1.978532e-004 
1.979795e-004 
1.979832e-004 
1.979223e-004 
1.978099e-004 
1.976463e-004 
1.974550e-004 
1.973051e-004 
1.000000e+000 
1.000000e+000 
1.266370e-004 
1.265075e-004 
1.264788e-004 
1.264720e-004 
1.265435e-004 
1.266812e-004 
1.268825e-004 
1.271247e-004 
1.274587e-004 
1.278451e-004 
1.282647e-004 
1.287397e-004 
1.292847e-004 
1.298568e-004 
1.304541e-004 
1.311162e-004 
1.318201e-004 
1.325392e-004 
1.332956e-004 
1.341171e-004 
1.349581e-004 
1.358224e-004 
1.367410e-004 
1.377142e-004 
1.386978e-004 
1.397244e-004 
1.408118e-004 
1.419373e-004 
1.430767e-004 
1.442745e-004 
1.455236e-004 
1.467943e-004 
1.480853e-004 
1.494335e-004 
1.508106e-004 
1.521920e-004 
1.535895e-004 
1.550245e-004 
1.564557e-004 
1.578643e-004 
1.592687e-004 
1.606754e-004 
1.620303e-004 
1.633210e-004 
1.645763e-004 
1.657816e-004 
1.668671e-004 
1.678426e-004 
1.687465e-004 
1.695248e-004 
1.701081e-004 
1.705530e-004 
1.708818e-004 
1.709917e-004 
1.708610e-004 
1.705939e-004 
1.701497e-004 
1.694118e-004 
1.684592e-004 
1.673898e-004 
1.660766e-004 
1.644766e-004 
1.627655e-004 
1.609476e-004 
1.588658e-004 
1.566294e-004 
1.544145e-004 
1.520932e-004 
1.496030e-004 
1.471836e-004 
1.448790e-004 
1.425073e-004 
1.401917e-004 
1.381568e-004 
1.362684e-004 
1.344440e-004 
1.329405e-004 
1.318051e-004 
1.308302e-004 
1.301199e-004 
1.298859e-004 
1.299680e-004 
1.302559e-004 
1.309637e-004 
1.321055e-004 
1.334481e-004 
1.350540e-004 
1.370748e-004 
1.393364e-004 
1.417012e-004 
1.443291e-004 
1.471989e-004 
1.500936e-004 
1.530331e-004 
1.561387e-004 
1.592477e-004 
1.622454e-004 
1.652445e-004 
1.682514e-004 
1.710795e-004 
1.737621e-004 
1.763941e-004 
1.788900e-004 
1.811402e-004 
1.832738e-004 
1.852966e-004 
1.871110e-004 
1.887097e-004 
1.902318e-004 
1.915909e-004 
1.927513e-004 
1.937635e-004 
1.947202e-004 
1.954840e-004 
1.961114e-004 
1.966422e-004 
1.971169e-004 
1.973928e-004 
1.976098e-004 
1.977474e-004 
1.978242e-004 
1.977185e-004 
1.976347e-004 
1.975016e-004 
1.973152e-004 
1.970217e-004 
1.000000e+000 
1.000000e+000 
1.266365e-004 
1.264771e-004 
1.263980e-004 
1.264212e-004 
1.264776e-004 
1.266023e-004 
1.268320e-004 
1.270872e-004 
1.273714e-004 
1.277539e-004 
1.282031e-004 
1.286427e-004 
1.291356e-004 
1.297278e-004 
1.303252e-004 
1.309149e-004 
1.315965e-004 
1.323431e-004 
1.330512e-004 
1.337989e-004 
1.346577e-004 
1.355228e-004 
1.363540e-004 
1.372900e-004 
1.383107e-004 
1.392865e-004 
1.402849e-004 
1.414261e-004 
1.425827e-004 
1.436864e-004 
1.448908e-004 
1.462123e-004 
1.474720e-004 
1.487259e-004 
1.501269e-004 
1.515542e-004 
1.528798e-004 
1.542739e-004 
1.557835e-004 
1.572021e-004 
1.585386e-004 
1.599864e-004 
1.614329e-004 
1.627016e-004 
1.639454e-004 
1.652579e-004 
1.664117e-004 
1.673706e-004 
1.683412e-004 
1.692462e-004 
1.698707e-004 
1.703438e-004 
1.707924e-004 
1.710083e-004 
1.709176e-004 
1.707292e-004 
1.704084e-004 
1.697508e-004 
1.688587e-004 
1.678834e-004 
1.666672e-004 
1.651413e-004 
1.634980e-004 
1.617500e-004 
1.597477e-004 
1.575834e-004 
1.554051e-004 
1.531276e-004 
1.507191e-004 
1.483385e-004 
1.460238e-004 
1.437036e-004 
1.414574e-004 
1.393939e-004 
1.374860e-004 
1.357384e-004 
1.342447e-004 
1.330305e-004 
1.320808e-004 
1.314357e-004 
1.311281e-004 
1.311507e-004 
1.315118e-004 
1.322131e-004 
1.332414e-004 
1.345965e-004 
1.362619e-004 
1.381905e-004 
1.403743e-004 
1.428026e-004 
1.454108e-004 
1.481536e-004 
1.510412e-004 
1.540221e-004 
1.570220e-004 
1.600361e-004 
1.630660e-004 
1.660294e-004 
1.688960e-004 
1.716900e-004 
1.743847e-004 
1.769091e-004 
1.792929e-004 
1.815517e-004 
1.836419e-004 
1.855366e-004 
1.873001e-004 
1.889124e-004 
1.903442e-004 
1.916117e-004 
1.927759e-004 
1.937810e-004 
1.946381e-004 
1.953791e-004 
1.960365e-004 
1.965387e-004 
1.969459e-004 
1.972695e-004 
1.975124e-004 
1.976131e-004 
1.976715e-004 
1.976623e-004 
1.975704e-004 
1.973660e-004 
1.970778e-004 
1.967720e-004 
1.000000e+000 
1.000000e+000 
1.264775e-004 
1.263271e-004 
1.262557e-004 
1.262850e-004 
1.263645e-004 
1.264934e-004 
1.266831e-004 
1.269614e-004 
1.272753e-004 
1.276217e-004 
1.280359e-004 
1.285112e-004 
1.289979e-004 
1.295215e-004 
1.301134e-004 
1.307352e-004 
1.313609e-004 
1.320406e-004 
1.327801e-004 
1.335262e-004 
1.342911e-004 
1.351285e-004 
1.360081e-004 
1.368864e-004 
1.378134e-004 
1.388196e-004 
1.398446e-004 
1.408786e-004 
1.419913e-004 
1.431695e-004 
1.443444e-004 
1.455519e-004 
1.468524e-004 
1.481823e-004 
1.494944e-004 
1.508659e-004 
1.523137e-004 
1.537366e-004 
1.551391e-004 
1.566140e-004 
1.581064e-004 
1.595131e-004 
1.609083e-004 
1.623518e-004 
1.637130e-004 
1.649424e-004 
1.661684e-004 
1.673622e-004 
1.683580e-004 
1.692114e-004 
1.700441e-004 
1.707112e-004 
1.710995e-004 
1.713737e-004 
1.715591e-004 
1.714388e-004 
1.710463e-004 
1.705793e-004 
1.699089e-004 
1.688695e-004 
1.676642e-004 
1.663922e-004 
1.648161e-004 
1.629555e-004 
1.610832e-004 
1.591083e-004 
1.568400e-004 
1.545125e-004 
1.522901e-004 
1.499397e-004 
1.474763e-004 
1.452145e-004 
1.430928e-004 
1.409147e-004 
1.389176e-004 
1.372814e-004 
1.357790e-004 
1.344127e-004 
1.334752e-004 
1.328985e-004 
1.324813e-004 
1.324174e-004 
1.328416e-004 
1.335232e-004 
1.344335e-004 
1.357891e-004 
1.374937e-004 
1.393446e-004 
1.414659e-004 
1.439315e-004 
1.465215e-004 
1.491836e-004 
1.520608e-004 
1.550574e-004 
1.579944e-004 
1.609531e-004 
1.639831e-004 
1.669158e-004 
1.697032e-004 
1.724623e-004 
1.751333e-004 
1.775910e-004 
1.799010e-004 
1.821296e-004 
1.841657e-004 
1.859852e-004 
1.876897e-004 
1.892694e-004 
1.906330e-004 
1.918423e-004 
1.929639e-004 
1.939402e-004 
1.947374e-004 
1.954506e-004 
1.960824e-004 
1.965733e-004 
1.969420e-004 
1.972694e-004 
1.975034e-004 
1.976191e-004 
1.976563e-004 
1.976552e-004 
1.975227e-004 
1.973290e-004 
1.970798e-004 
1.966871e-004 
1.000000e+000 
1.000000e+000 
1.262524e-004 
1.261580e-004 
1.260767e-004 
1.260628e-004 
1.261620e-004 
1.263365e-004 
1.265110e-004 
1.267662e-004 
1.271089e-004 
1.274647e-004 
1.278366e-004 
1.283069e-004 
1.288173e-004 
1.293079e-004 
1.298551e-004 
1.304910e-004 
1.311126e-004 
1.317314e-004 
1.324495e-004 
1.332131e-004 
1.339363e-004 
1.347153e-004 
1.356041e-004 
1.364807e-004 
1.373425e-004 
1.383228e-004 
1.393740e-004 
1.403771e-004 
1.414348e-004 
1.426316e-004 
1.438284e-004 
1.449918e-004 
1.462811e-004 
1.476641e-004 
1.489857e-004 
1.503343e-004 
1.518287e-004 
1.533203e-004 
1.547348e-004 
1.562376e-004 
1.578236e-004 
1.593055e-004 
1.607400e-004 
1.622666e-004 
1.637469e-004 
1.650633e-004 
1.663665e-004 
1.676779e-004 
1.688047e-004 
1.697621e-004 
1.706933e-004 
1.714888e-004 
1.720169e-004 
1.723964e-004 
1.726722e-004 
1.726850e-004 
1.724298e-004 
1.720329e-004 
1.714347e-004 
1.705365e-004 
1.694283e-004 
1.681658e-004 
1.666653e-004 
1.649353e-004 
1.630709e-004 
1.610663e-004 
1.588993e-004 
1.566353e-004 
1.543212e-004 
1.519632e-004 
1.496021e-004 
1.472809e-004 
1.450307e-004 
1.429076e-004 
1.409399e-004 
1.391358e-004 
1.375665e-004 
1.362822e-004 
1.352478e-004 
1.344960e-004 
1.341174e-004 
1.340751e-004 
1.343153e-004 
1.349252e-004 
1.359233e-004 
1.371915e-004 
1.387371e-004 
1.406401e-004 
1.427985e-004 
1.451108e-004 
1.476518e-004 
1.504090e-004 
1.532231e-004 
1.560895e-004 
1.590765e-004 
1.620720e-004 
1.649704e-004 
1.678507e-004 
1.707063e-004 
1.734027e-004 
1.759431e-004 
1.784146e-004 
1.807357e-004 
1.828342e-004 
1.847924e-004 
1.866424e-004 
1.882806e-004 
1.897293e-004 
1.910773e-004 
1.922909e-004 
1.933018e-004 
1.942006e-004 
1.950223e-004 
1.957017e-004 
1.962319e-004 
1.967175e-004 
1.971199e-004 
1.973917e-004 
1.975727e-004 
1.977323e-004 
1.977773e-004 
1.977278e-004 
1.976102e-004 
1.974101e-004 
1.970308e-004 
1.966019e-004 
1.000000e+000 
1.000000e+000 
1.259432e-004 
1.258106e-004 
1.257962e-004 
1.258356e-004 
1.259065e-004 
1.260695e-004 
1.263001e-004 
1.265532e-004 
1.268513e-004 
1.272362e-004 
1.276442e-004 
1.280575e-004 
1.285374e-004 
1.290809e-004 
1.296110e-004 
1.301629e-004 
1.307990e-004 
1.314608e-004 
1.320993e-004 
1.328013e-004 
1.335854e-004 
1.343572e-004 
1.351336e-004 
1.360164e-004 
1.369514e-004 
1.378568e-004 
1.388244e-004 
1.399138e-004 
1.410074e-004 
1.420903e-004 
1.432957e-004 
1.445935e-004 
1.458519e-004 
1.471526e-004 
1.486033e-004 
1.500735e-004 
1.514891e-004 
1.530094e-004 
1.546425e-004 
1.562014e-004 
1.577293e-004 
1.593898e-004 
1.610516e-004 
1.625626e-004 
1.640892e-004 
1.656977e-004 
1.671496e-004 
1.684266e-004 
1.697474e-004 
1.710059e-004 
1.719689e-004 
1.727949e-004 
1.736254e-004 
1.741983e-004 
1.744299e-004 
1.745915e-004 
1.746323e-004 
1.742661e-004 
1.736407e-004 
1.729792e-004 
1.720356e-004 
1.706858e-004 
1.692440e-004 
1.677294e-004 
1.658481e-004 
1.637441e-004 
1.617026e-004 
1.595195e-004 
1.570654e-004 
1.546726e-004 
1.524090e-004 
1.500067e-004 
1.476058e-004 
1.454996e-004 
1.435192e-004 
1.415481e-004 
1.398879e-004 
1.386019e-004 
1.374527e-004 
1.365524e-004 
1.361319e-004 
1.360300e-004 
1.361338e-004 
1.366602e-004 
1.376214e-004 
1.388010e-004 
1.402563e-004 
1.421205e-004 
1.442320e-004 
1.464766e-004 
1.489773e-004 
1.517055e-004 
1.544778e-004 
1.573100e-004 
1.602722e-004 
1.632345e-004 
1.661042e-004 
1.689588e-004 
1.717779e-004 
1.744373e-004 
1.769500e-004 
1.793782e-004 
1.816480e-004 
1.837070e-004 
1.856232e-004 
1.874092e-004 
1.889944e-004 
1.904006e-004 
1.916909e-004 
1.928380e-004 
1.938095e-004 
1.946641e-004 
1.954272e-004 
1.960615e-004 
1.965727e-004 
1.970172e-004 
1.973811e-004 
1.976391e-004 
1.978164e-004 
1.979484e-004 
1.979844e-004 
1.979170e-004 
1.977770e-004 
1.975826e-004 
1.972624e-004 
1.967714e-004 
1.000000e+000 
1.000000e+000 
1.255856e-004 
1.254736e-004 
1.254371e-004 
1.255109e-004 
1.256113e-004 
1.257601e-004 
1.260051e-004 
1.262952e-004 
1.265830e-004 
1.269426e-004 
1.273745e-004 
1.278013e-004 
1.282422e-004 
1.287706e-004 
1.293243e-004 
1.298561e-004 
1.304453e-004 
1.311116e-004 
1.317599e-004 
1.324167e-004 
1.331702e-004 
1.339629e-004 
1.347285e-004 
1.355641e-004 
1.365015e-004 
1.374355e-004 
1.383803e-004 
1.394486e-004 
1.405831e-004 
1.416987e-004 
1.428916e-004 
1.442165e-004 
1.455536e-004 
1.468978e-004 
1.483704e-004 
1.499278e-004 
1.514581e-004 
1.530424e-004 
1.547488e-004 
1.564580e-004 
1.581303e-004 
1.598780e-004 
1.616722e-004 
1.633885e-004 
1.650694e-004 
1.667836e-004 
1.684283e-004 
1.699388e-004 
1.713907e-004 
1.727736e-004 
1.739810e-004 
1.750167e-004 
1.759286e-004 
1.766589e-004 
1.771515e-004 
1.774356e-004 
1.775166e-004 
1.773535e-004 
1.769343e-004 
1.762725e-004 
1.753770e-004 
1.742489e-004 
1.728737e-004 
1.712678e-004 
1.694900e-004 
1.675406e-004 
1.653892e-004 
1.631161e-004 
1.608032e-004 
1.583960e-004 
1.559089e-004 
1.534987e-004 
1.511780e-004 
1.488625e-004 
1.466811e-004 
1.447719e-004 
1.430273e-004 
1.414395e-004 
1.402154e-004 
1.393439e-004 
1.386762e-004 
1.383454e-004 
1.384838e-004 
1.389156e-004 
1.395943e-004 
1.407119e-004 
1.422036e-004 
1.438677e-004 
1.458085e-004 
1.481138e-004 
1.505669e-004 
1.530954e-004 
1.558539e-004 
1.587518e-004 
1.615861e-004 
1.644399e-004 
1.673834e-004 
1.702233e-004 
1.728987e-004 
1.755508e-004 
1.781200e-004 
1.804479e-004 
1.826179e-004 
1.847165e-004 
1.866114e-004 
1.882630e-004 
1.898112e-004 
1.912420e-004 
1.924403e-004 
1.934792e-004 
1.944598e-004 
1.952941e-004 
1.959442e-004 
1.965309e-004 
1.970679e-004 
1.974550e-004 
1.977375e-004 
1.980099e-004 
1.982021e-004 
1.982597e-004 
1.982730e-004 
1.982634e-004 
1.981164e-004 
1.978297e-004 
1.974594e-004 
1.970324e-004 
1.000000e+000 
1.000000e+000 
1.250832e-004 
1.250364e-004 
1.250300e-004 
1.250978e-004 
1.252522e-004 
1.254397e-004 
1.256448e-004 
1.259422e-004 
1.262953e-004 
1.266363e-004 
1.270159e-004 
1.274884e-004 
1.279613e-004 
1.284160e-004 
1.289514e-004 
1.295509e-004 
1.301077e-004 
1.306886e-004 
1.313808e-004 
1.320845e-004 
1.327461e-004 
1.335039e-004 
1.343647e-004 
1.351874e-004 
1.360251e-004 
1.370198e-004 
1.380656e-004 
1.390622e-004 
1.401679e-004 
1.414387e-004 
1.426895e-004 
1.439390e-004 
1.453803e-004 
1.469244e-004 
1.483994e-004 
1.499649e-004 
1.517372e-004 
1.534971e-004 
1.551924e-004 
1.570612e-004 
1.590490e-004 
1.609041e-004 
1.627514e-004 
1.647780e-004 
1.667462e-004 
1.685126e-004 
1.703372e-004 
1.722259e-004 
1.738577e-004 
1.753011e-004 
1.768112e-004 
1.781688e-004 
1.791463e-004 
1.800103e-004 
1.808437e-004 
1.813011e-004 
1.813979e-004 
1.814473e-004 
1.812844e-004 
1.806435e-004 
1.797882e-004 
1.788772e-004 
1.775927e-004 
1.759273e-004 
1.742262e-004 
1.723924e-004 
1.701777e-004 
1.678389e-004 
1.655747e-004 
1.631288e-004 
1.605025e-004 
1.580282e-004 
1.556542e-004 
1.531860e-004 
1.508542e-004 
1.488364e-004 
1.469358e-004 
1.451657e-004 
1.437842e-004 
1.427401e-004 
1.418886e-004 
1.413932e-004 
1.413506e-004 
1.415989e-004 
1.421363e-004 
1.431009e-004 
1.444138e-004 
1.459568e-004 
1.478029e-004 
1.499609e-004 
1.522952e-004 
1.547793e-004 
1.574541e-004 
1.602353e-004 
1.630350e-004 
1.658720e-004 
1.687244e-004 
1.715042e-004 
1.741920e-004 
1.768018e-004 
1.792851e-004 
1.816023e-004 
1.837718e-004 
1.857898e-004 
1.876236e-004 
1.892804e-004 
1.907819e-004 
1.921188e-004 
1.932886e-004 
1.943166e-004 
1.952134e-004 
1.959778e-004 
1.966248e-004 
1.971735e-004 
1.976262e-004 
1.979913e-004 
1.982780e-004 
1.984955e-004 
1.986419e-004 
1.987228e-004 
1.987282e-004 
1.986588e-004 
1.985014e-004 
1.982765e-004 
1.979461e-004 
1.974559e-004 
1.000000e+000 
1.000000e+000 
1.245337e-004 
1.245403e-004 
1.245796e-004 
1.246503e-004 
1.248045e-004 
1.250430e-004 
1.252819e-004 
1.255549e-004 
1.259098e-004 
1.262973e-004 
1.266716e-004 
1.271039e-004 
1.275985e-004 
1.280842e-004 
1.285771e-004 
1.291480e-004 
1.297470e-004 
1.303289e-004 
1.309627e-004 
1.316748e-004 
1.323873e-004 
1.331154e-004 
1.339380e-004 
1.348196e-004 
1.357025e-004 
1.366579e-004 
1.377249e-004 
1.388291e-004 
1.399693e-004 
1.412314e-004 
1.425919e-004 
1.439838e-004 
1.454599e-004 
1.470724e-004 
1.487525e-004 
1.504741e-004 
1.523072e-004 
1.542482e-004 
1.562204e-004 
1.582365e-004 
1.603455e-004 
1.625004e-004 
1.646408e-004 
1.667938e-004 
1.689756e-004 
1.711216e-004 
1.731850e-004 
1.751924e-004 
1.771424e-004 
1.789596e-004 
1.806037e-004 
1.821149e-004 
1.834819e-004 
1.846074e-004 
1.854781e-004 
1.861689e-004 
1.866322e-004 
1.867571e-004 
1.866086e-004 
1.862733e-004 
1.856315e-004 
1.846245e-004 
1.834196e-004 
1.820351e-004 
1.803029e-004 
1.783097e-004 
1.762557e-004 
1.740215e-004 
1.715078e-004 
1.689651e-004 
1.664790e-004 
1.638377e-004 
1.611417e-004 
1.586732e-004 
1.563070e-004 
1.539098e-004 
1.517745e-004 
1.500066e-004 
1.483522e-004 
1.469045e-004 
1.459533e-004 
1.453366e-004 
1.448882e-004 
1.448796e-004 
1.453708e-004 
1.460701e-004 
1.470376e-004 
1.485000e-004 
1.502520e-004 
1.521087e-004 
1.542790e-004 
1.567658e-004 
1.592803e-004 
1.618529e-004 
1.646471e-004 
1.674670e-004 
1.701487e-004 
1.728571e-004 
1.755928e-004 
1.781269e-004 
1.804886e-004 
1.828255e-004 
1.850051e-004 
1.869111e-004 
1.886906e-004 
1.903820e-004 
1.918275e-004 
1.930598e-004 
1.942236e-004 
1.952514e-004 
1.960525e-004 
1.967524e-004 
1.974118e-004 
1.979197e-004 
1.982826e-004 
1.986328e-004 
1.989302e-004 
1.990892e-004 
1.991849e-004 
1.992881e-004 
1.992922e-004 
1.991844e-004 
1.990387e-004 
1.988260e-004 
1.984257e-004 
1.979492e-004 
1.000000e+000 
1.000000e+000 
1.239364e-004 
1.239255e-004 
1.240260e-004 
1.241876e-004 
1.243367e-004 
1.245543e-004 
1.248605e-004 
1.251680e-004 
1.254724e-004 
1.258742e-004 
1.263154e-004 
1.267155e-004 
1.271606e-004 
1.277060e-004 
1.282258e-004 
1.287198e-004 
1.293216e-004 
1.299839e-004 
1.305824e-004 
1.312305e-004 
1.320209e-004 
1.328064e-004 
1.335548e-004 
1.344524e-004 
1.354692e-004 
1.364335e-004 
1.374571e-004 
1.386952e-004 
1.399793e-004 
1.412249e-004 
1.426545e-004 
1.442832e-004 
1.458769e-004 
1.475177e-004 
1.494235e-004 
1.514253e-004 
1.533544e-004 
1.554459e-004 
1.577736e-004 
1.600473e-004 
1.622776e-004 
1.647359e-004 
1.672747e-004 
1.696317e-004 
1.720166e-004 
1.745733e-004 
1.769800e-004 
1.791588e-004 
1.814119e-004 
1.836443e-004 
1.855264e-004 
1.872235e-004 
1.889460e-004 
1.903903e-004 
1.914119e-004 
1.923229e-004 
1.931001e-004 
1.934069e-004 
1.933708e-004 
1.932484e-004 
1.927975e-004 
1.918625e-004 
1.907459e-004 
1.894871e-004 
1.878056e-004 
1.858155e-004 
1.837791e-004 
1.815333e-004 
1.789673e-004 
1.763528e-004 
1.737555e-004 
1.709871e-004 
1.681649e-004 
1.655035e-004 
1.629044e-004 
1.603247e-004 
1.579705e-004 
1.558816e-004 
1.539575e-004 
1.522976e-004 
1.510141e-004 
1.500374e-004 
1.493654e-004 
1.490934e-004 
1.491974e-004 
1.496261e-004 
1.504202e-004 
1.515697e-004 
1.530092e-004 
1.547364e-004 
1.567354e-004 
1.589316e-004 
1.612994e-004 
1.638256e-004 
1.664322e-004 
1.690724e-004 
1.717494e-004 
1.744055e-004 
1.769723e-004 
1.794611e-004 
1.818602e-004 
1.840997e-004 
1.861730e-004 
1.881155e-004 
1.898883e-004 
1.914581e-004 
1.928716e-004 
1.941457e-004 
1.952356e-004 
1.961637e-004 
1.969849e-004 
1.976821e-004 
1.982336e-004 
1.986988e-004 
1.990979e-004 
1.993954e-004 
1.996054e-004 
1.997835e-004 
1.999000e-004 
1.999331e-004 
1.999118e-004 
1.998497e-004 
1.996878e-004 
1.994511e-004 
1.991541e-004 
1.987108e-004 
1.000000e+000 
1.000000e+000 
1.232742e-004 
1.233356e-004 
1.234268e-004 
1.236175e-004 
1.238411e-004 
1.240686e-004 
1.243553e-004 
1.247125e-004 
1.250593e-004 
1.254201e-004 
1.258547e-004 
1.263212e-004 
1.267618e-004 
1.272475e-004 
1.278051e-004 
1.283598e-004 
1.289091e-004 
1.295413e-004 
1.302290e-004 
1.309044e-004 
1.316267e-004 
1.324592e-004 
1.333288e-004 
1.342138e-004 
1.352091e-004 
1.363223e-004 
1.374678e-004 
1.386854e-004 
1.400632e-004 
1.415484e-004 
1.430803e-004 
1.447463e-004 
1.465902e-004 
1.485169e-004 
1.505131e-004 
1.526837e-004 
1.550062e-004 
1.573694e-004 
1.598157e-004 
1.624327e-004 
1.651239e-004 
1.677940e-004 
1.705393e-004 
1.733931e-004 
1.761929e-004 
1.789015e-004 
1.816526e-004 
1.843854e-004 
1.869097e-004 
1.892920e-004 
1.916542e-004 
1.938168e-004 
1.956445e-004 
1.973210e-004 
1.988703e-004 
2.000294e-004 
2.008209e-004 
2.014802e-004 
2.018585e-004 
2.017322e-004 
2.013301e-004 
2.007929e-004 
1.998221e-004 
1.983997e-004 
1.968708e-004 
1.951460e-004 
1.929445e-004 
1.905308e-004 
1.881502e-004 
1.854996e-004 
1.825392e-004 
1.796880e-004 
1.769037e-004 
1.738829e-004 
1.709094e-004 
1.682727e-004 
1.656710e-004 
1.630583e-004 
1.608592e-004 
1.590261e-004 
1.572537e-004 
1.558057e-004 
1.549265e-004 
1.543024e-004 
1.538780e-004 
1.539993e-004 
1.545658e-004 
1.552805e-004 
1.563421e-004 
1.578942e-004 
1.596252e-004 
1.614662e-004 
1.636544e-004 
1.660574e-004 
1.684165e-004 
1.708675e-004 
1.734918e-004 
1.760334e-004 
1.784354e-004 
1.808741e-004 
1.832539e-004 
1.853883e-004 
1.873883e-004 
1.893395e-004 
1.910741e-004 
1.925621e-004 
1.939600e-004 
1.952360e-004 
1.962649e-004 
1.971414e-004 
1.979644e-004 
1.986355e-004 
1.991247e-004 
1.995662e-004 
1.999635e-004 
2.002205e-004 
2.003890e-004 
2.005667e-004 
2.006786e-004 
2.006762e-004 
2.006457e-004 
2.006132e-004 
2.004652e-004 
2.001957e-004 
1.998734e-004 
1.995085e-004 
1.000000e+000 
1.000000e+000 
1.224996e-004 
1.226608e-004 
1.228207e-004 
1.229989e-004 
1.232682e-004 
1.235731e-004 
1.238426e-004 
1.241790e-004 
1.245966e-004 
1.249838e-004 
1.253625e-004 
1.258497e-004 
1.263609e-004 
1.268149e-004 
1.273342e-004 
1.279622e-004 
1.285486e-004 
1.291234e-004 
1.298410e-004 
1.306189e-004 
1.313360e-004 
1.321498e-004 
1.331384e-004 
1.341221e-004 
1.351080e-004 
1.363069e-004 
1.376443e-004 
1.389488e-004 
1.403860e-004 
1.420918e-004 
1.438534e-004 
1.456282e-004 
1.476674e-004 
1.499276e-004 
1.521668e-004 
1.545254e-004 
1.571950e-004 
1.599466e-004 
1.626525e-004 
1.655762e-004 
1.687182e-004 
1.717738e-004 
1.748167e-004 
1.780829e-004 
1.813543e-004 
1.844190e-004 
1.875163e-004 
1.907035e-004 
1.936521e-004 
1.963641e-004 
1.990955e-004 
2.016778e-004 
2.038588e-004 
2.058383e-004 
2.077227e-004 
2.092221e-004 
2.102990e-004 
2.112016e-004 
2.118292e-004 
2.119604e-004 
2.117588e-004 
2.113512e-004 
2.105336e-004 
2.092838e-004 
2.078126e-004 
2.060787e-004 
2.039535e-004 
2.015774e-004 
1.990563e-004 
1.962927e-004 
1.933213e-004 
1.902881e-004 
1.871855e-004 
1.840038e-004 
1.808574e-004 
1.777911e-004 
1.748036e-004 
1.719816e-004 
1.693730e-004 
1.669714e-004 
1.648586e-004 
1.630855e-004 
1.616058e-004 
1.604723e-004 
1.597677e-004 
1.594149e-004 
1.593834e-004 
1.597785e-004 
1.605538e-004 
1.615784e-004 
1.629155e-004 
1.645993e-004 
1.664613e-004 
1.684555e-004 
1.706758e-004 
1.730183e-004 
1.753316e-004 
1.776860e-004 
1.800998e-004 
1.824034e-004 
1.845712e-004 
1.867070e-004 
1.887293e-004 
1.905234e-004 
1.921794e-004 
1.937451e-004 
1.950995e-004 
1.962434e-004 
1.972973e-004 
1.982260e-004 
1.989456e-004 
1.995500e-004 
2.001079e-004 
2.005326e-004 
2.008199e-004 
2.010867e-004 
2.013127e-004 
2.014193e-004 
2.014720e-004 
2.015391e-004 
2.015272e-004 
2.014091e-004 
2.012745e-004 
2.011202e-004 
2.008336e-004 
2.004149e-004 
1.000000e+000 
1.000000e+000 
1.217302e-004 
1.219244e-004 
1.221640e-004 
1.223999e-004 
1.226521e-004 
1.229872e-004 
1.233393e-004 
1.236680e-004 
1.240449e-004 
1.244978e-004 