# vtk DataFile Version 2.0
2D-ADE data file 
ASCII
DATASET RECTILINEAR_GRID
DIMENSIONS 128 128 1
X_COORDINATES 128 int
0 1 2 3 4 5 6 7 8 9 10 11 12 13 14 15 16 17 18 19 20 21 22 23 24 25 26 27 28 29 30 31 32 33 34 35 36 37 38 39 40 41 42 43 44 45 46 47 48 49 50 51 52 53 54 55 56 57 58 59 60 61 62 63 64 65 66 67 68 69 70 71 72 73 74 75 76 77 78 79 80 81 82 83 84 85 86 87 88 89 90 91 92 93 94 95 96 97 98 99 100 101 102 103 104 105 106 107 108 109 110 111 112 113 114 115 116 117 118 119 120 121 122 123 124 125 126 127 
Y_COORDINATES 128 int
0 1 2 3 4 5 6 7 8 9 10 11 12 13 14 15 16 17 18 19 20 21 22 23 24 25 26 27 28 29 30 31 32 33 34 35 36 37 38 39 40 41 42 43 44 45 46 47 48 49 50 51 52 53 54 55 56 57 58 59 60 61 62 63 64 65 66 67 68 69 70 71 72 73 74 75 76 77 78 79 80 81 82 83 84 85 86 87 88 89 90 91 92 93 94 95 96 97 98 99 100 101 102 103 104 105 106 107 108 109 110 111 112 113 114 115 116 117 118 119 120 121 122 123 124 125 126 127 
Z_COORDINATES 1 int
0
POINT_DATA 16384 
SCALARS density double 1
LOOKUP_TABLE default
1.000000e+000 
1.000000e+000 
1.000000e+000 
1.000000e+000 
1.000000e+000 
1.000000e+000 
1.000000e+000 
1.000000e+000 
1.000000e+000 
1.000000e+000 
1.000000e+000 
1.000000e+000 
1.000000e+000 
1.000000e+000 
1.000000e+000 
1.000000e+000 
1.000000e+000 
1.000000e+000 
1.000000e+000 
1.000000e+000 
1.000000e+000 
1.000000e+000 
1.000000e+000 
1.000000e+000 
1.000000e+000 
1.000000e+000 
1.000000e+000 
1.000000e+000 
1.000000e+000 
1.000000e+000 
1.000000e+000 
1.000000e+000 
1.000000e+000 
1.000000e+000 
1.000000e+000 
1.000000e+000 
1.000000e+000 
1.000000e+000 
1.000000e+000 
1.000000e+000 
1.000000e+000 
1.000000e+000 
1.000000e+000 
1.000000e+000 
1.000000e+000 
1.000000e+000 
1.000000e+000 
1.000000e+000 
1.000000e+000 
1.000000e+000 
1.000000e+000 
1.000000e+000 
1.000000e+000 
1.000000e+000 
1.000000e+000 
1.000000e+000 
1.000000e+000 
1.000000e+000 
1.000000e+000 
1.000000e+000 
1.000000e+000 
1.000000e+000 
1.000000e+000 
1.000000e+000 
1.000000e+000 
1.000000e+000 
1.000000e+000 
1.000000e+000 
1.000000e+000 
1.000000e+000 
1.000000e+000 
1.000000e+000 
1.000000e+000 
1.000000e+000 
1.000000e+000 
1.000000e+000 
1.000000e+000 
1.000000e+000 
1.000000e+000 
1.000000e+000 
1.000000e+000 
1.000000e+000 
1.000000e+000 
1.000000e+000 
1.000000e+000 
1.000000e+000 
1.000000e+000 
1.000000e+000 
1.000000e+000 
1.000000e+000 
1.000000e+000 
1.000000e+000 
1.000000e+000 
1.000000e+000 
1.000000e+000 
1.000000e+000 
1.000000e+000 
1.000000e+000 
1.000000e+000 
1.000000e+000 
1.000000e+000 
1.000000e+000 
1.000000e+000 
1.000000e+000 
1.000000e+000 
1.000000e+000 
1.000000e+000 
1.000000e+000 
1.000000e+000 
1.000000e+000 
1.000000e+000 
1.000000e+000 
1.000000e+000 
1.000000e+000 
1.000000e+000 
1.000000e+000 
1.000000e+000 
1.000000e+000 
1.000000e+000 
1.000000e+000 
1.000000e+000 
1.000000e+000 
1.000000e+000 
1.000000e+000 
1.000000e+000 
1.000000e+000 
1.000000e+000 
1.000000e+000 
1.000000e+000 
1.166760e-004 
1.165791e-004 
1.164406e-004 
1.163587e-004 
1.163107e-004 
1.164637e-004 
1.167037e-004 
1.170666e-004 
1.174945e-004 
1.180927e-004 
1.187460e-004 
1.194659e-004 
1.202637e-004 
1.211716e-004 
1.220908e-004 
1.230544e-004 
1.241118e-004 
1.252232e-004 
1.263323e-004 
1.275103e-004 
1.287904e-004 
1.300831e-004 
1.314006e-004 
1.328295e-004 
1.343438e-004 
1.358503e-004 
1.374369e-004 
1.391547e-004 
1.409129e-004 
1.426712e-004 
1.445630e-004 
1.465548e-004 
1.485316e-004 
1.505430e-004 
1.527024e-004 
1.548769e-004 
1.569980e-004 
1.591928e-004 
1.614793e-004 
1.636673e-004 
1.657963e-004 
1.680012e-004 
1.701637e-004 
1.721287e-004 
1.740505e-004 
1.759716e-004 
1.776737e-004 
1.791334e-004 
1.805473e-004 
1.817981e-004 
1.826822e-004 
1.833418e-004 
1.838908e-004 
1.840815e-004 
1.838600e-004 
1.834601e-004 
1.828185e-004 
1.816928e-004 
1.802371e-004 
1.786253e-004 
1.766402e-004 
1.742083e-004 
1.716098e-004 
1.688393e-004 
1.656756e-004 
1.622779e-004 
1.588764e-004 
1.553037e-004 
1.515050e-004 
1.477711e-004 
1.441480e-004 
1.404565e-004 
1.368533e-004 
1.335690e-004 
1.304835e-004 
1.275545e-004 
1.250291e-004 
1.229538e-004 
1.211778e-004 
1.198115e-004 
1.190166e-004 
1.186848e-004 
1.187485e-004 
1.193594e-004 
1.205111e-004 
1.220588e-004 
1.240236e-004 
1.264814e-004 
1.293030e-004 
1.324002e-004 
1.358148e-004 
1.395178e-004 
1.433555e-004 
1.473165e-004 
1.514043e-004 
1.555346e-004 
1.595998e-004 
1.636392e-004 
1.676039e-004 
1.714244e-004 
1.750540e-004 
1.785500e-004 
1.818288e-004 
1.848819e-004 
1.876956e-004 
1.903287e-004 
1.926859e-004 
1.948298e-004 
1.967370e-004 
1.984724e-004 
1.999377e-004 
2.012530e-004 
2.023502e-004 
2.033178e-004 
2.040434e-004 
2.046874e-004 
2.051209e-004 
2.054714e-004 
2.055951e-004 
2.056867e-004 
2.055720e-004 
2.054187e-004 
2.050742e-004 
2.047701e-004 
2.044942e-004 
2.043680e-004 
1.000000e+000 
1.000000e+000 
1.167627e-004 
1.166625e-004 
1.165495e-004 
1.165710e-004 
1.165384e-004 
1.167066e-004 
1.169136e-004 
1.173078e-004 
1.176952e-004 
1.182603e-004 
1.188758e-004 
1.195874e-004 
1.203228e-004 
1.211868e-004 
1.220812e-004 
1.230135e-004 
1.240081e-004 
1.250864e-004 
1.261783e-004 
1.273074e-004 
1.285340e-004 
1.298046e-004 
1.310979e-004 
1.324629e-004 
1.339341e-004 
1.354198e-004 
1.369628e-004 
1.386062e-004 
1.403306e-004 
1.420593e-004 
1.438841e-004 
1.458005e-004 
1.477536e-004 
1.497200e-004 
1.517937e-004 
1.539074e-004 
1.560162e-004 
1.581461e-004 
1.603438e-004 
1.625055e-004 
1.646293e-004 
1.667498e-004 
1.688503e-004 
1.708385e-004 
1.727481e-004 
1.745815e-004 
1.762876e-004 
1.778139e-004 
1.791938e-004 
1.803950e-004 
1.813759e-004 
1.821118e-004 
1.826125e-004 
1.828482e-004 
1.828016e-004 
1.824453e-004 
1.817885e-004 
1.808368e-004 
1.795696e-004 
1.779594e-004 
1.760630e-004 
1.739022e-004 
1.714290e-004 
1.686688e-004 
1.657334e-004 
1.626038e-004 
1.592384e-004 
1.557652e-004 
1.522811e-004 
1.487046e-004 
1.450839e-004 
1.416123e-004 
1.382795e-004 
1.350105e-004 
1.319801e-004 
1.293189e-004 
1.269019e-004 
1.247658e-004 
1.231229e-004 
1.219355e-004 
1.210710e-004 
1.206944e-004 
1.208967e-004 
1.215040e-004 
1.224920e-004 
1.240415e-004 
1.260438e-004 
1.283335e-004 
1.309983e-004 
1.341001e-004 
1.374036e-004 
1.408747e-004 
1.446084e-004 
1.485179e-004 
1.523894e-004 
1.563271e-004 
1.603264e-004 
1.642433e-004 
1.679787e-004 
1.716952e-004 
1.752611e-004 
1.786014e-004 
1.817154e-004 
1.847441e-004 
1.874752e-004 
1.899784e-004 
1.922606e-004 
1.944223e-004 
1.962321e-004 
1.979063e-004 
1.993633e-004 
2.007053e-004 
2.017091e-004 
2.026956e-004 
2.034383e-004 
2.041096e-004 
2.044751e-004 
2.049170e-004 
2.050623e-004 
2.052028e-004 
2.050751e-004 
2.050762e-004 
2.047829e-004 
2.045737e-004 
2.043725e-004 
2.042776e-004 
1.000000e+000 
1.000000e+000 
1.168909e-004 
1.167898e-004 
1.166671e-004 
1.166267e-004 
1.167023e-004 
1.168549e-004 
1.170573e-004 
1.174052e-004 
1.178502e-004 
1.183490e-004 
1.189191e-004 
1.196214e-004 
1.203632e-004 
1.211298e-004 
1.219900e-004 
1.229399e-004 
1.238813e-004 
1.248649e-004 
1.259628e-004 
1.270972e-004 
1.282179e-004 
1.294345e-004 
1.307605e-004 
1.320773e-004 
1.334245e-004 
1.349164e-004 
1.364738e-004 
1.380053e-004 
1.396389e-004 
1.414181e-004 
1.431940e-004 
1.449702e-004 
1.469045e-004 
1.489182e-004 
1.508703e-004 
1.528801e-004 
1.550404e-004 
1.571643e-004 
1.592094e-004 
1.613582e-004 
1.635601e-004 
1.656057e-004 
1.675979e-004 
1.696719e-004 
1.716295e-004 
1.733582e-004 
1.750637e-004 
1.767291e-004 
1.781013e-004 
1.792423e-004 
1.803390e-004 
1.812011e-004 
1.816673e-004 
1.819469e-004 
1.820801e-004 
1.818010e-004 
1.811465e-004 
1.803420e-004 
1.792456e-004 
1.776832e-004 
1.758692e-004 
1.738996e-004 
1.715511e-004 
1.688571e-004 
1.660676e-004 
1.631058e-004 
1.598355e-004 
1.564666e-004 
1.531311e-004 
1.496768e-004 
1.461512e-004 
1.427877e-004 
1.395613e-004 
1.363884e-004 
1.334442e-004 
1.308458e-004 
1.284979e-004 
1.264402e-004 
1.248314e-004 
1.236531e-004 
1.228427e-004 
1.224947e-004 
1.226569e-004 
1.232512e-004 
1.242679e-004 
1.257597e-004 
1.276776e-004 
1.299524e-004 
1.325822e-004 
1.355497e-004 
1.387738e-004 
1.422089e-004 
1.458282e-004 
1.495813e-004 
1.533988e-004 
1.572490e-004 
1.610899e-004 
1.648811e-004 
1.685743e-004 
1.721512e-004 
1.755771e-004 
1.788391e-004 
1.819041e-004 
1.847747e-004 
1.874323e-004 
1.898870e-004 
1.921138e-004 
1.941407e-004 
1.959552e-004 
1.975813e-004 
1.989965e-004 
2.002506e-004 
2.013202e-004 
2.022384e-004 
2.029818e-004 
2.036116e-004 
2.040813e-004 
2.044356e-004 
2.046523e-004 
2.047876e-004 
2.047844e-004 
2.047078e-004 
2.045722e-004 
2.043793e-004 
2.041571e-004 
2.039819e-004 
1.000000e+000 
1.000000e+000 
1.169749e-004 
1.167718e-004 
1.167006e-004 
1.166614e-004 
1.167294e-004 
1.168730e-004 
1.171211e-004 
1.174285e-004 
1.178635e-004 
1.183642e-004 
1.189306e-004 
1.195679e-004 
1.202974e-004 
1.210621e-004 
1.218742e-004 
1.227602e-004 
1.236996e-004 
1.246629e-004 
1.256824e-004 
1.267751e-004 
1.278994e-004 
1.290642e-004 
1.303040e-004 
1.316107e-004 
1.329483e-004 
1.343551e-004 
1.358453e-004 
1.373925e-004 
1.389827e-004 
1.406608e-004 
1.424122e-004 
1.442097e-004 
1.460592e-004 
1.479915e-004 
1.499719e-004 
1.519817e-004 
1.540332e-004 
1.561376e-004 
1.582510e-004 
1.603590e-004 
1.624725e-004 
1.645882e-004 
1.666519e-004 
1.686498e-004 
1.705981e-004 
1.724758e-004 
1.742120e-004 
1.758083e-004 
1.772914e-004 
1.786038e-004 
1.796711e-004 
1.805396e-004 
1.812242e-004 
1.816195e-004 
1.816966e-004 
1.815528e-004 
1.811449e-004 
1.803538e-004 
1.792538e-004 
1.779426e-004 
1.762945e-004 
1.742660e-004 
1.720353e-004 
1.696127e-004 
1.668452e-004 
1.638476e-004 
1.608065e-004 
1.576033e-004 
1.541838e-004 
1.508010e-004 
1.475128e-004 
1.441481e-004 
1.408442e-004 
1.378420e-004 
1.350196e-004 
1.323073e-004 
1.299777e-004 
1.280892e-004 
1.264438e-004 
1.251573e-004 
1.244499e-004 
1.241647e-004 
1.241971e-004 
1.247652e-004 
1.258797e-004 
1.273044e-004 
1.291012e-004 
1.314129e-004 
1.340546e-004 
1.368821e-004 
1.400459e-004 
1.435076e-004 
1.470401e-004 
1.506540e-004 
1.544554e-004 
1.582665e-004 
1.619674e-004 
1.656596e-004 
1.693368e-004 
1.728059e-004 
1.760993e-004 
1.793015e-004 
1.823233e-004 
1.850560e-004 
1.876296e-004 
1.900430e-004 
1.922048e-004 
1.941096e-004 
1.958987e-004 
1.974830e-004 
1.988384e-004 
2.000133e-004 
2.011053e-004 
2.019759e-004 
2.026939e-004 
2.032912e-004 
2.038180e-004 
2.041270e-004 
2.043698e-004 
2.045137e-004 
2.045919e-004 
2.044705e-004 
2.043691e-004 
2.042063e-004 
2.039907e-004 
2.036545e-004 
1.000000e+000 
1.000000e+000 
1.170261e-004 
1.167852e-004 
1.166352e-004 
1.166174e-004 
1.166680e-004 
1.168134e-004 
1.170887e-004 
1.174070e-004 
1.177910e-004 
1.182937e-004 
1.188820e-004 
1.194772e-004 
1.201512e-004 
1.209324e-004 
1.217298e-004 
1.225343e-004 
1.234455e-004 
1.244250e-004 
1.253792e-004 
1.263900e-004 
1.275238e-004 
1.286734e-004 
1.298110e-004 
1.310749e-004 
1.324386e-004 
1.337782e-004 
1.351703e-004 
1.367287e-004 
1.383234e-004 
1.398953e-004 
1.415993e-004 
1.434436e-004 
1.452514e-004 
1.470858e-004 
1.490936e-004 
1.511481e-004 
1.531252e-004 
1.551960e-004 
1.573977e-004 
1.595209e-004 
1.615761e-004 
1.637510e-004 
1.659229e-004 
1.679135e-004 
1.698722e-004 
1.718833e-004 
1.737107e-004 
1.753147e-004 
1.768949e-004 
1.783640e-004 
1.795001e-004 
1.804273e-004 
1.812645e-004 
1.817957e-004 
1.819420e-004 
1.819078e-004 
1.816529e-004 
1.809689e-004 
1.799565e-004 
1.787653e-004 
1.772370e-004 
1.753044e-004 
1.731623e-004 
1.708268e-004 
1.681540e-004 
1.652435e-004 
1.622502e-004 
1.590985e-004 
1.557687e-004 
1.524304e-004 
1.491327e-004 
1.458197e-004 
1.425856e-004 
1.395503e-004 
1.367016e-004 
1.340611e-004 
1.317334e-004 
1.297545e-004 
1.281247e-004 
1.268941e-004 
1.260996e-004 
1.257424e-004 
1.258384e-004 
1.263875e-004 
1.273748e-004 
1.288027e-004 
1.306490e-004 
1.328556e-004 
1.354098e-004 
1.382931e-004 
1.414256e-004 
1.447496e-004 
1.482675e-004 
1.519124e-004 
1.555949e-004 
1.593015e-004 
1.630239e-004 
1.666653e-004 
1.701880e-004 
1.736112e-004 
1.769003e-004 
1.799772e-004 
1.828722e-004 
1.855982e-004 
1.881092e-004 
1.903783e-004 
1.924749e-004 
1.943773e-004 
1.960594e-004 
1.975407e-004 
1.988875e-004 
2.000431e-004 
2.010251e-004 
2.018670e-004 
2.026067e-004 
2.031702e-004 
2.036257e-004 
2.039823e-004 
2.042480e-004 
2.043567e-004 
2.044163e-004 
2.043975e-004 
2.042885e-004 
2.040526e-004 
2.037141e-004 
2.033563e-004 
1.000000e+000 
1.000000e+000 
1.168702e-004 
1.166138e-004 
1.164807e-004 
1.164795e-004 
1.165431e-004 
1.166902e-004 
1.169266e-004 
1.172796e-004 
1.176881e-004 
1.181554e-004 
1.187101e-004 
1.193414e-004 
1.199979e-004 
1.207087e-004 
1.214963e-004 
1.223216e-004 
1.231634e-004 
1.240718e-004 
1.250456e-004 
1.260380e-004 
1.270673e-004 
1.281827e-004 
1.293524e-004 
1.305443e-004 
1.318087e-004 
1.331701e-004 
1.345737e-004 
1.360185e-004 
1.375680e-004 
1.392063e-004 
1.408735e-004 
1.426073e-004 
1.444587e-004 
1.463669e-004 
1.482915e-004 
1.503032e-004 
1.524119e-004 
1.545216e-004 
1.566363e-004 
1.588379e-004 
1.610685e-004 
1.632272e-004 
1.653797e-004 
1.675754e-004 
1.696825e-004 
1.716469e-004 
1.735849e-004 
1.754604e-004 
1.771045e-004 
1.785627e-004 
1.799466e-004 
1.811065e-004 
1.819226e-004 
1.825500e-004 
1.830087e-004 
1.830779e-004 
1.827842e-004 
1.823215e-004 
1.815599e-004 
1.803311e-004 
1.788369e-004 
1.771792e-004 
1.751232e-004 
1.726901e-004 
1.701595e-004 
1.674483e-004 
1.643717e-004 
1.611735e-004 
1.580303e-004 
1.547199e-004 
1.512689e-004 
1.480069e-004 
1.448862e-004 
1.417236e-004 
1.387720e-004 
1.362256e-004 
1.338694e-004 
1.317200e-004 
1.300823e-004 
1.288964e-004 
1.279705e-004 
1.275075e-004 
1.276437e-004 
1.281500e-004 
1.290020e-004 
1.304125e-004 
1.322770e-004 
1.343903e-004 
1.368700e-004 
1.397749e-004 
1.428743e-004 
1.461092e-004 
1.496062e-004 
1.532531e-004 
1.568631e-004 
1.605068e-004 
1.642162e-004 
1.678140e-004 
1.712481e-004 
1.746241e-004 
1.778726e-004 
1.808693e-004 
1.836770e-004 
1.863552e-004 
1.887936e-004 
1.909733e-004 
1.929937e-004 
1.948449e-004 
1.964423e-004 
1.978524e-004 
1.991398e-004 
2.002525e-004 
2.011629e-004 
2.019680e-004 
2.026695e-004 
2.032158e-004 
2.036269e-004 
2.039837e-004 
2.042345e-004 
2.043612e-004 
2.043979e-004 
2.043858e-004 
2.042287e-004 
2.040089e-004 
2.037174e-004 
2.032558e-004 
1.000000e+000 
1.000000e+000 
1.166315e-004 
1.164344e-004 
1.162678e-004 
1.162130e-004 
1.163037e-004 
1.165003e-004 
1.167225e-004 
1.170586e-004 
1.174986e-004 
1.179739e-004 
1.184876e-004 
1.191169e-004 
1.197917e-004 
1.204618e-004 
1.212019e-004 
1.220362e-004 
1.228601e-004 
1.236967e-004 
1.246434e-004 
1.256414e-004 
1.266123e-004 
1.276611e-004 
1.288337e-004 
1.300093e-004 
1.311968e-004 
1.325306e-004 
1.339550e-004 
1.353586e-004 
1.368523e-004 
1.385147e-004 
1.402030e-004 
1.418937e-004 
1.437473e-004 
1.457226e-004 
1.476661e-004 
1.496730e-004 
1.518559e-004 
1.540586e-004 
1.562101e-004 
1.584756e-004 
1.608394e-004 
1.631089e-004 
1.653413e-004 
1.676691e-004 
1.699420e-004 
1.720383e-004 
1.741044e-004 
1.761505e-004 
1.779738e-004 
1.795847e-004 
1.811186e-004 
1.824552e-004 
1.834554e-004 
1.842333e-004 
1.848256e-004 
1.850660e-004 
1.849460e-004 
1.845884e-004 
1.839289e-004 
1.828679e-004 
1.814958e-004 
1.798682e-004 
1.779036e-004 
1.756158e-004 
1.731040e-004 
1.703682e-004 
1.673961e-004 
1.642625e-004 
1.610229e-004 
1.576963e-004 
1.543384e-004 
1.510030e-004 
1.477348e-004 
1.446076e-004 
1.416633e-004 
1.389215e-004 
1.364701e-004 
1.343743e-004 
1.326071e-004 
1.312125e-004 
1.302936e-004 
1.298184e-004 
1.297354e-004 
1.301391e-004 
1.310484e-004 
1.323391e-004 
1.340168e-004 
1.361582e-004 
1.386488e-004 
1.413767e-004 
1.444099e-004 
1.477216e-004 
1.511359e-004 
1.546394e-004 
1.582878e-004 
1.619523e-004 
1.655166e-004 
1.690530e-004 
1.725419e-004 
1.758393e-004 
1.789459e-004 
1.819440e-004 
1.847448e-004 
1.872768e-004 
1.896239e-004 
1.918164e-004 
1.937507e-004 
1.954557e-004 
1.970217e-004 
1.984169e-004 
1.995772e-004 
2.005998e-004 
2.015198e-004 
2.022766e-004 
2.028666e-004 
2.033992e-004 
2.038339e-004 
2.041293e-004 
2.043238e-004 
2.044897e-004 
2.045302e-004 
2.044728e-004 
2.043329e-004 
2.040956e-004 
2.036586e-004 
2.031656e-004 
1.000000e+000 
1.000000e+000 
1.162514e-004 
1.160064e-004 
1.159218e-004 
1.159224e-004 
1.159859e-004 
1.161750e-004 
1.164565e-004 
1.167901e-004 
1.171952e-004 
1.177061e-004 
1.182526e-004 
1.188231e-004 
1.194733e-004 
1.201918e-004 
1.209039e-004 
1.216509e-004 
1.224867e-004 
1.233516e-004 
1.242067e-004 
1.251396e-004 
1.261616e-004 
1.271869e-004 
1.282413e-004 
1.294211e-004 
1.306711e-004 
1.319224e-004 
1.332677e-004 
1.347597e-004 
1.362867e-004 
1.378434e-004 
1.395567e-004 
1.413927e-004 
1.432294e-004 
1.451496e-004 
1.472513e-004 
1.494059e-004 
1.515453e-004 
1.538213e-004 
1.562342e-004 
1.586003e-004 
1.609599e-004 
1.634651e-004 
1.659797e-004 
1.683505e-004 
1.707334e-004 
1.731841e-004 
1.754596e-004 
1.775341e-004 
1.796141e-004 
1.815857e-004 
1.832090e-004 
1.846326e-004 
1.859888e-004 
1.870100e-004 
1.876048e-004 
1.880375e-004 
1.882534e-004 
1.879624e-004 
1.873075e-004 
1.865115e-004 
1.853286e-004 
1.836340e-004 
1.817443e-004 
1.796842e-004 
1.771640e-004 
1.743334e-004 
1.714869e-004 
1.684299e-004 
1.650425e-004 
1.616696e-004 
1.583918e-004 
1.549545e-004 
1.515123e-004 
1.483733e-004 
1.453824e-004 
1.424389e-004 
1.398594e-004 
1.377185e-004 
1.357920e-004 
1.342058e-004 
1.331979e-004 
1.326132e-004 
1.323486e-004 
1.326239e-004 
1.334479e-004 
1.346061e-004 
1.361551e-004 
1.382174e-004 
1.406224e-004 
1.432522e-004 
1.462162e-004 
1.494685e-004 
1.528172e-004 
1.562675e-004 
1.598698e-004 
1.634817e-004 
1.670039e-004 
1.705001e-004 
1.739355e-004 
1.771826e-004 
1.802498e-004 
1.831885e-004 
1.859220e-004 
1.884012e-004 
1.906908e-004 
1.928005e-004 
1.946656e-004 
1.963125e-004 
1.978025e-004 
1.991127e-004 
2.002185e-004 
2.011811e-004 
2.020261e-004 
2.027235e-004 
2.032838e-004 
2.037632e-004 
2.041490e-004 
2.044229e-004 
2.046091e-004 
2.047422e-004 
2.047702e-004 
2.046894e-004 
2.045254e-004 
2.042971e-004 
2.039285e-004 
2.033653e-004 
1.000000e+000 
1.000000e+000 
1.158043e-004 
1.155847e-004 
1.154675e-004 
1.154998e-004 
1.155958e-004 
1.157787e-004 
1.160850e-004 
1.164590e-004 
1.168564e-004 
1.173491e-004 
1.179250e-004 
1.185067e-004 
1.191174e-004 
1.198229e-004 
1.205540e-004 
1.212714e-004 
1.220570e-004 
1.229224e-004 
1.237748e-004 
1.246529e-004 
1.256428e-004 
1.266820e-004 
1.277145e-004 
1.288464e-004 
1.301027e-004 
1.313792e-004 
1.327030e-004 
1.341881e-004 
1.357690e-004 
1.373680e-004 
1.390907e-004 
1.409854e-004 
1.429277e-004 
1.449225e-004 
1.470921e-004 
1.493826e-004 
1.516822e-004 
1.540779e-004 
1.566300e-004 
1.592092e-004 
1.617770e-004 
1.644435e-004 
1.671663e-004 
1.698133e-004 
1.724252e-004 
1.750607e-004 
1.776032e-004 
1.799820e-004 
1.822664e-004 
1.844329e-004 
1.863645e-004 
1.880601e-004 
1.895583e-004 
1.907909e-004 
1.916964e-004 
1.922993e-004 
1.925976e-004 
1.925461e-004 
1.921317e-004 
1.913652e-004 
1.902538e-004 
1.888016e-004 
1.869962e-004 
1.848557e-004 
1.824457e-004 
1.797743e-004 
1.768167e-004 
1.736622e-004 
1.704061e-004 
1.670040e-004 
1.634811e-004 
1.600103e-004 
1.566191e-004 
1.532346e-004 
1.500021e-004 
1.470772e-004 
1.443639e-004 
1.418675e-004 
1.398115e-004 
1.381954e-004 
1.368776e-004 
1.360032e-004 
1.357116e-004 
1.358271e-004 
1.363071e-004 
1.373458e-004 
1.388717e-004 
1.406768e-004 
1.428627e-004 
1.455058e-004 
1.483745e-004 
1.513884e-004 
1.546908e-004 
1.581715e-004 
1.616157e-004 
1.650977e-004 
1.686712e-004 
1.721284e-004 
1.754040e-004 
1.786299e-004 
1.817344e-004 
1.845560e-004 
1.871785e-004 
1.896818e-004 
1.919312e-004 
1.938927e-004 
1.957074e-004 
1.973594e-004 
1.987398e-004 
1.999285e-004 
2.010270e-004 
2.019503e-004 
2.026688e-004 
2.033064e-004 
2.038769e-004 
2.042860e-004 
2.045832e-004 
2.048625e-004 
2.050535e-004 
2.051071e-004 
2.051115e-004 
2.050858e-004 
2.049135e-004 
2.045905e-004 
2.041618e-004 
2.036667e-004 
1.000000e+000 
1.000000e+000 
1.151592e-004 
1.149956e-004 
1.149218e-004 
1.149648e-004 
1.151198e-004 
1.153405e-004 
1.156144e-004 
1.160099e-004 
1.164764e-004 
1.169512e-004 
1.174846e-004 
1.181183e-004 
1.187552e-004 
1.193861e-004 
1.201043e-004 
1.208839e-004 
1.216260e-004 
1.224062e-004 
1.233023e-004 
1.242158e-004 
1.251075e-004 
1.261172e-004 
1.272439e-004 
1.283577e-004 
1.295229e-004 
1.308749e-004 
1.323069e-004 
1.337337e-004 
1.353147e-004 
1.370979e-004 
1.389048e-004 
1.407643e-004 
1.428620e-004 
1.451047e-004 
1.473293e-004 
1.496952e-004 
1.523079e-004 
1.549479e-004 
1.575662e-004 
1.603913e-004 
1.633589e-004 
1.662164e-004 
1.690827e-004 
1.721319e-004 
1.751179e-004 
1.778919e-004 
1.807025e-004 
1.835434e-004 
1.860858e-004 
1.883893e-004 
1.906974e-004 
1.927821e-004 
1.944082e-004 
1.958334e-004 
1.971338e-004 
1.979582e-004 
1.983160e-004 
1.985168e-004 
1.983934e-004 
1.976774e-004 
1.966323e-004 
1.954183e-004 
1.937198e-004 
1.915324e-004 
1.892070e-004 
1.866531e-004 
1.836298e-004 
1.804034e-004 
1.771828e-004 
1.737226e-004 
1.700376e-004 
1.664733e-004 
1.629911e-004 
1.594122e-004 
1.559832e-004 
1.528946e-004 
1.499645e-004 
1.472236e-004 
1.449417e-004 
1.430775e-004 
1.415009e-004 
1.403857e-004 
1.398311e-004 
1.396819e-004 
1.399438e-004 
1.407506e-004 
1.420191e-004 
1.436325e-004 
1.456562e-004 
1.480844e-004 
1.507747e-004 
1.536924e-004 
1.568597e-004 
1.601774e-004 
1.635502e-004 
1.669809e-004 
1.704298e-004 
1.738012e-004 
1.770677e-004 
1.802282e-004 
1.832267e-004 
1.860229e-004 
1.886286e-004 
1.910335e-004 
1.932077e-004 
1.951610e-004 
1.969123e-004 
1.984545e-004 
1.997929e-004 
2.009554e-004 
2.019531e-004 
2.027923e-004 
2.034943e-004 
2.040791e-004 
2.045520e-004 
2.049282e-004 
2.052191e-004 
2.054337e-004 
2.055721e-004 
2.056438e-004 
2.056356e-004 
2.055461e-004 
2.053605e-004 
2.051048e-004 
2.047297e-004 
2.041694e-004 
1.000000e+000 
1.000000e+000 
1.144340e-004 
1.143404e-004 
1.143060e-004 
1.143496e-004 
1.145174e-004 
1.148028e-004 
1.151152e-004 
1.154937e-004 
1.159742e-004 
1.165017e-004 
1.170307e-004 
1.176317e-004 
1.182962e-004 
1.189546e-004 
1.196284e-004 
1.203844e-004 
1.211662e-004 
1.219397e-004 
1.227794e-004 
1.237058e-004 
1.246439e-004 
1.256245e-004 
1.267260e-004 
1.279082e-004 
1.291249e-004 
1.304586e-004 
1.319411e-004 
1.334991e-004 
1.351454e-004 
1.369679e-004 
1.389339e-004 
1.409836e-004 
1.431792e-004 
1.455651e-004 
1.480663e-004 
1.506651e-004 
1.534305e-004 
1.563458e-004 
1.593314e-004 
1.624031e-004 
1.655981e-004 
1.688565e-004 
1.721156e-004 
1.753963e-004 
1.786984e-004 
1.819473e-004 
1.850915e-004 
1.881445e-004 
1.910908e-004 
1.938484e-004 
1.963684e-004 
1.986783e-004 
2.007584e-004 
2.025065e-004 
2.039001e-004 
2.050069e-004 
2.057766e-004 
2.060943e-004 
2.060199e-004 
2.056403e-004 
2.048365e-004 
2.035485e-004 
2.019461e-004 
2.000536e-004 
1.977061e-004 
1.949950e-004 
1.921308e-004 
1.890026e-004 
1.855186e-004 
1.819420e-004 
1.783722e-004 
1.746079e-004 
1.707634e-004 
1.671383e-004 
1.636206e-004 
1.600905e-004 
1.568589e-004 
1.540456e-004 
1.514082e-004 
1.490552e-004 
1.472898e-004 
1.459565e-004 
1.448984e-004 
1.443970e-004 
1.445124e-004 
1.449529e-004 
1.457829e-004 
1.472242e-004 
1.490606e-004 
1.511037e-004 
1.535555e-004 
1.564005e-004 
1.593379e-004 
1.623913e-004 
1.657060e-004 
1.690674e-004 
1.723053e-004 
1.755732e-004 
1.788528e-004 
1.819078e-004 
1.847654e-004 
1.875612e-004 
1.901542e-004 
1.924318e-004 
1.945400e-004 
1.965105e-004 
1.981895e-004 
1.996173e-004 
2.009367e-004 
2.020815e-004 
2.029713e-004 
2.037361e-004 
2.044351e-004 
2.049646e-004 
2.053390e-004 
2.056905e-004 
2.059790e-004 
2.061271e-004 
2.062106e-004 
2.062972e-004 
2.062814e-004 
2.061559e-004 
2.059855e-004 
2.057355e-004 
2.052847e-004 
2.047540e-004 
1.000000e+000 
1.000000e+000 
1.136039e-004 
1.134975e-004 
1.135479e-004 
1.136926e-004 
1.138610e-004 
1.141391e-004 
1.145294e-004 
1.149462e-004 
1.153871e-004 
1.159431e-004 
1.165415e-004 
1.171108e-004 
1.177368e-004 
1.184609e-004 
1.191562e-004 
1.198374e-004 
1.206318e-004 
1.214850e-004 
1.222857e-004 
1.231589e-004 
1.241875e-004 
1.252284e-004 
1.262678e-004 
1.274932e-004 
1.288667e-004 
1.302307e-004 
1.317093e-004 
1.334503e-004 
1.352843e-004 
1.371434e-004 
1.392504e-004 
1.416111e-004 
1.439972e-004 
1.464998e-004 
1.493272e-004 
1.523036e-004 
1.552658e-004 
1.584458e-004 
1.619035e-004 
1.653437e-004 
1.687758e-004 
1.724589e-004 
1.762315e-004 
1.798259e-004 
1.834430e-004 
1.872116e-004 
1.907985e-004 
1.941180e-004 
1.974605e-004 
2.007187e-004 
2.035539e-004 
2.061233e-004 
2.086276e-004 
2.107550e-004 
2.123549e-004 
2.137338e-004 
2.148632e-004 
2.154028e-004 
2.154779e-004 
2.153437e-004 
2.147575e-004 
2.135649e-004 
2.120709e-004 
2.103179e-004 
2.080298e-004 
2.053279e-004 
2.024809e-004 
1.993330e-004 
1.957845e-004 
1.921182e-004 
1.884091e-004 
1.844829e-004 
1.804720e-004 
1.766033e-004 
1.727919e-004 
1.690134e-004 
1.654881e-004 
1.622678e-004 
1.592692e-004 
1.566075e-004 
1.544035e-004 
1.525987e-004 
1.512054e-004 
1.503236e-004 
1.499311e-004 
1.499845e-004 
1.505260e-004 
1.515374e-004 
1.529512e-004 
1.547629e-004 
1.569424e-004 
1.594026e-004 
1.621116e-004 
1.650418e-004 
1.680958e-004 
1.712173e-004 
1.743987e-004 
1.775639e-004 
1.806325e-004 
1.836107e-004 
1.864751e-004 
1.891447e-004 
1.916116e-004 
1.939089e-004 
1.959910e-004 
1.978246e-004 
1.994611e-004 
2.009174e-004 
2.021485e-004 
2.031839e-004 
2.040839e-004 
2.048327e-004 
2.054128e-004 
2.058913e-004 
2.062912e-004 
2.065792e-004 
2.067733e-004 
2.069337e-004 
2.070304e-004 
2.070431e-004 
2.070000e-004 
2.069157e-004 
2.067279e-004 
2.064629e-004 
2.061302e-004 
2.056341e-004 
1.000000e+000 
1.000000e+000 
1.126842e-004 
1.126614e-004 
1.127034e-004 
1.128901e-004 
1.131440e-004 
1.134400e-004 
1.138265e-004 
1.143068e-004 
1.147935e-004 
1.153162e-004 
1.159232e-004 
1.165645e-004 
1.171854e-004 
1.178600e-004 
1.186036e-004 
1.193440e-004 
1.200897e-004 
1.209284e-004 
1.218267e-004 
1.227314e-004 
1.237116e-004 
1.248253e-004 
1.260032e-004 
1.272425e-004 
1.286391e-004 
1.301952e-004 
1.318378e-004 
1.336198e-004 
1.356212e-004 
1.377892e-004 
1.400775e-004 
1.425744e-004 
1.453120e-004 
1.482003e-004 
1.512330e-004 
1.545037e-004 
1.579799e-004 
1.615550e-004 
1.652653e-004 
1.691814e-004 
1.731999e-004 
1.772231e-004 
1.813316e-004 
1.855434e-004 
1.896900e-004 
1.937239e-004 
1.977619e-004 
2.017330e-004 
2.054395e-004 
2.089346e-004 
2.123287e-004 
2.154363e-004 
2.181129e-004 
2.205330e-004 
2.227159e-004 
2.243935e-004 
2.255820e-004 
2.265143e-004 
2.270409e-004 
2.269351e-004 
2.264250e-004 
2.256549e-004 
2.243274e-004 
2.224259e-004 
2.203021e-004 
2.178729e-004 
2.148616e-004 
2.115413e-004 
2.081686e-004 
2.044480e-004 
2.003504e-004 
1.963093e-004 
1.922942e-004 
1.880138e-004 
1.837688e-004 
1.798636e-004 
1.760085e-004 
1.721750e-004 
1.688042e-004 
1.658592e-004 
1.630484e-004 
1.606520e-004 
1.589221e-004 
1.575508e-004 
1.564952e-004 
1.561059e-004 
1.562781e-004 
1.567178e-004 
1.576260e-004 
1.591336e-004 
1.609198e-004 
1.629144e-004 
1.653403e-004 
1.680451e-004 
1.707638e-004 
1.736220e-004 
1.766783e-004 
1.796643e-004 
1.825194e-004 
1.854037e-004 
1.882057e-004 
1.907387e-004 
1.931097e-004 
1.953907e-004 
1.974129e-004 
1.991526e-004 
2.007614e-004 
2.022037e-004 
2.033638e-004 
2.043418e-004 
2.052327e-004 
2.059440e-004 
2.064565e-004 
2.069050e-004 
2.072923e-004 
2.075324e-004 
2.076820e-004 
2.078357e-004 
2.079202e-004 
2.078951e-004 
2.078437e-004 
2.077877e-004 
2.076155e-004 
2.073202e-004 
2.069609e-004 
2.065548e-004 
1.000000e+000 
1.000000e+000 
1.115967e-004 
1.116809e-004 
1.118092e-004 
1.120039e-004 
1.123188e-004 
1.126984e-004 
1.130769e-004 
1.135542e-004 
1.141232e-004 
1.146756e-004 
1.152380e-004 
1.159154e-004 
1.166108e-004 
1.172573e-004 
1.179784e-004 
1.188049e-004 
1.195909e-004 
1.203862e-004 
1.213396e-004 
1.223638e-004 
1.233560e-004 
1.244875e-004 
1.258260e-004 
1.271988e-004 
1.286339e-004 
1.303435e-004 
1.322444e-004 
1.341807e-004 
1.363306e-004 
1.388206e-004 
1.414358e-004 
1.441487e-004 
1.472086e-004 
1.505591e-004 
1.539601e-004 
1.575572e-004 
1.615281e-004 
1.656316e-004 
1.697402e-004 
1.741100e-004 
1.787228e-004 
1.832640e-004 
1.878017e-004 
1.925572e-004 
1.972954e-004 
2.017960e-004 
2.062888e-004 
2.108154e-004 
2.150357e-004 
2.189444e-004 
2.227872e-004 
2.263845e-004 
2.294774e-004 
2.322600e-004 
2.348313e-004 
2.368955e-004 
2.384131e-004 
2.396288e-004 
2.404385e-004 
2.406210e-004 
2.403409e-004 
2.397245e-004 
2.385695e-004 
2.368588e-004 
2.348069e-004 
2.323756e-004 
2.294445e-004 
2.261622e-004 
2.226405e-004 
2.187913e-004 
2.146623e-004 
2.104093e-004 
2.060349e-004 
2.015452e-004 
1.970691e-004 
1.926624e-004 
1.883398e-004 
1.842060e-004 
1.803209e-004 
1.766916e-004 
1.734178e-004 
1.705627e-004 
1.680882e-004 
1.660610e-004 
1.645740e-004 
1.635515e-004 
1.629681e-004 
1.629352e-004 
1.634010e-004 
1.642286e-004 
1.654812e-004 
1.671833e-004 
1.691508e-004 
1.713303e-004 
1.738063e-004 
1.764546e-004 
1.791110e-004 
1.818382e-004 
1.846382e-004 
1.873254e-004 
1.898697e-004 
1.923669e-004 
1.947222e-004 
1.968174e-004 
1.987433e-004 
2.005418e-004 
2.020885e-004 
2.033896e-004 
2.045677e-004 
2.055860e-004 
2.063657e-004 
2.070080e-004 
2.075825e-004 
2.080059e-004 
2.082808e-004 
2.085281e-004 
2.087281e-004 
2.088067e-004 
2.088328e-004 
2.088746e-004 
2.088388e-004 
2.086986e-004 
2.085428e-004 
2.083683e-004 
2.080604e-004 
2.076087e-004 
1.000000e+000 
1.000000e+000 
1.104725e-004 
1.106181e-004 
1.108374e-004 
1.110922e-004 
1.114054e-004 
1.118384e-004 
1.123084e-004 
1.127824e-004 
1.133291e-004 
1.139629e-004 