# vtk DataFile Version 2.0
2D-ADE data file 
ASCII
DATASET RECTILINEAR_GRID
DIMENSIONS 128 128 1
X_COORDINATES 128 int
0 1 2 3 4 5 6 7 8 9 10 11 12 13 14 15 16 17 18 19 20 21 22 23 24 25 26 27 28 29 30 31 32 33 34 35 36 37 38 39 40 41 42 43 44 45 46 47 48 49 50 51 52 53 54 55 56 57 58 59 60 61 62 63 64 65 66 67 68 69 70 71 72 73 74 75 76 77 78 79 80 81 82 83 84 85 86 87 88 89 90 91 92 93 94 95 96 97 98 99 100 101 102 103 104 105 106 107 108 109 110 111 112 113 114 115 116 117 118 119 120 121 122 123 124 125 126 127 
Y_COORDINATES 128 int
0 1 2 3 4 5 6 7 8 9 10 11 12 13 14 15 16 17 18 19 20 21 22 23 24 25 26 27 28 29 30 31 32 33 34 35 36 37 38 39 40 41 42 43 44 45 46 47 48 49 50 51 52 53 54 55 56 57 58 59 60 61 62 63 64 65 66 67 68 69 70 71 72 73 74 75 76 77 78 79 80 81 82 83 84 85 86 87 88 89 90 91 92 93 94 95 96 97 98 99 100 101 102 103 104 105 106 107 108 109 110 111 112 113 114 115 116 117 118 119 120 121 122 123 124 125 126 127 
Z_COORDINATES 1 int
0
POINT_DATA 16384 
SCALARS density double 1
LOOKUP_TABLE default
1.000000e+000 
1.000000e+000 
1.000000e+000 
1.000000e+000 
1.000000e+000 
1.000000e+000 
1.000000e+000 
1.000000e+000 
1.000000e+000 
1.000000e+000 
1.000000e+000 
1.000000e+000 
1.000000e+000 
1.000000e+000 
1.000000e+000 
1.000000e+000 
1.000000e+000 
1.000000e+000 
1.000000e+000 
1.000000e+000 
1.000000e+000 
1.000000e+000 
1.000000e+000 
1.000000e+000 
1.000000e+000 
1.000000e+000 
1.000000e+000 
1.000000e+000 
1.000000e+000 
1.000000e+000 
1.000000e+000 
1.000000e+000 
1.000000e+000 
1.000000e+000 
1.000000e+000 
1.000000e+000 
1.000000e+000 
1.000000e+000 
1.000000e+000 
1.000000e+000 
1.000000e+000 
1.000000e+000 
1.000000e+000 
1.000000e+000 
1.000000e+000 
1.000000e+000 
1.000000e+000 
1.000000e+000 
1.000000e+000 
1.000000e+000 
1.000000e+000 
1.000000e+000 
1.000000e+000 
1.000000e+000 
1.000000e+000 
1.000000e+000 
1.000000e+000 
1.000000e+000 
1.000000e+000 
1.000000e+000 
1.000000e+000 
1.000000e+000 
1.000000e+000 
1.000000e+000 
1.000000e+000 
1.000000e+000 
1.000000e+000 
1.000000e+000 
1.000000e+000 
1.000000e+000 
1.000000e+000 
1.000000e+000 
1.000000e+000 
1.000000e+000 
1.000000e+000 
1.000000e+000 
1.000000e+000 
1.000000e+000 
1.000000e+000 
1.000000e+000 
1.000000e+000 
1.000000e+000 
1.000000e+000 
1.000000e+000 
1.000000e+000 
1.000000e+000 
1.000000e+000 
1.000000e+000 
1.000000e+000 
1.000000e+000 
1.000000e+000 
1.000000e+000 
1.000000e+000 
1.000000e+000 
1.000000e+000 
1.000000e+000 
1.000000e+000 
1.000000e+000 
1.000000e+000 
1.000000e+000 
1.000000e+000 
1.000000e+000 
1.000000e+000 
1.000000e+000 
1.000000e+000 
1.000000e+000 
1.000000e+000 
1.000000e+000 
1.000000e+000 
1.000000e+000 
1.000000e+000 
1.000000e+000 
1.000000e+000 
1.000000e+000 
1.000000e+000 
1.000000e+000 
1.000000e+000 
1.000000e+000 
1.000000e+000 
1.000000e+000 
1.000000e+000 
1.000000e+000 
1.000000e+000 
1.000000e+000 
1.000000e+000 
1.000000e+000 
1.000000e+000 
1.000000e+000 
1.000000e+000 
1.165396e-004 
1.164424e-004 
1.163033e-004 
1.162208e-004 
1.161724e-004 
1.163254e-004 
1.165655e-004 
1.169291e-004 
1.173578e-004 
1.179573e-004 
1.186121e-004 
1.193338e-004 
1.201336e-004 
1.210436e-004 
1.219649e-004 
1.229309e-004 
1.239907e-004 
1.251047e-004 
1.262163e-004 
1.273971e-004 
1.286800e-004 
1.299756e-004 
1.312962e-004 
1.327284e-004 
1.342462e-004 
1.357564e-004 
1.373470e-004 
1.390689e-004 
1.408315e-004 
1.425945e-004 
1.444913e-004 
1.464883e-004 
1.484706e-004 
1.504878e-004 
1.526532e-004 
1.548339e-004 
1.569614e-004 
1.591629e-004 
1.614560e-004 
1.636509e-004 
1.657869e-004 
1.679987e-004 
1.701682e-004 
1.721402e-004 
1.740688e-004 
1.759964e-004 
1.777050e-004 
1.791708e-004 
1.805904e-004 
1.818465e-004 
1.827354e-004 
1.833993e-004 
1.839520e-004 
1.841457e-004 
1.839267e-004 
1.835285e-004 
1.828878e-004 
1.817623e-004 
1.803060e-004 
1.786928e-004 
1.767057e-004 
1.742710e-004 
1.716692e-004 
1.688947e-004 
1.657265e-004 
1.623239e-004 
1.589170e-004 
1.553389e-004 
1.515345e-004 
1.477950e-004 
1.441664e-004 
1.404697e-004 
1.368617e-004 
1.335730e-004 
1.304838e-004 
1.275518e-004 
1.250243e-004 
1.229478e-004 
1.211716e-004 
1.198062e-004 
1.190132e-004 
1.186843e-004 
1.187521e-004 
1.193681e-004 
1.205258e-004 
1.220805e-004 
1.240530e-004 
1.265193e-004 
1.293499e-004 
1.324566e-004 
1.358811e-004 
1.395940e-004 
1.434417e-004 
1.474126e-004 
1.515102e-004 
1.556499e-004 
1.597241e-004 
1.637722e-004 
1.677448e-004 
1.715727e-004 
1.752091e-004 
1.787113e-004 
1.819956e-004 
1.850536e-004 
1.878715e-004 
1.905083e-004 
1.928686e-004 
1.950151e-004 
1.969245e-004 
1.986616e-004 
2.001282e-004 
2.014446e-004 
2.025426e-004 
2.035107e-004 
2.042366e-004 
2.048809e-004 
2.053143e-004 
2.056647e-004 
2.057882e-004 
2.058795e-004 
2.057644e-004 
2.056106e-004 
2.052656e-004 
2.049609e-004 
2.046847e-004 
2.045584e-004 
1.000000e+000 
1.000000e+000 
1.166266e-004 
1.165261e-004 
1.164127e-004 
1.164339e-004 
1.164008e-004 
1.165693e-004 
1.167763e-004 
1.171712e-004 
1.175594e-004 
1.181258e-004 
1.187426e-004 
1.194559e-004 
1.201930e-004 
1.210593e-004 
1.219556e-004 
1.228902e-004 
1.238871e-004 
1.249679e-004 
1.260622e-004 
1.271940e-004 
1.284234e-004 
1.296969e-004 
1.309931e-004 
1.323614e-004 
1.338360e-004 
1.353253e-004 
1.368721e-004 
1.385197e-004 
1.402484e-004 
1.419816e-004 
1.438113e-004 
1.457329e-004 
1.476913e-004 
1.496633e-004 
1.517429e-004 
1.538627e-004 
1.559778e-004 
1.581142e-004 
1.603186e-004 
1.624871e-004 
1.646177e-004 
1.667451e-004 
1.688526e-004 
1.708475e-004 
1.727639e-004 
1.746039e-004 
1.763164e-004 
1.778488e-004 
1.792345e-004 
1.804410e-004 
1.814268e-004 
1.821671e-004 
1.826716e-004 
1.829105e-004 
1.828665e-004 
1.825120e-004 
1.818564e-004 
1.809050e-004 
1.796375e-004 
1.780262e-004 
1.761280e-004 
1.739648e-004 
1.714885e-004 
1.687245e-004 
1.657849e-004 
1.626507e-004 
1.592803e-004 
1.558018e-004 
1.523125e-004 
1.487305e-004 
1.451046e-004 
1.416281e-004 
1.382907e-004 
1.350175e-004 
1.319836e-004 
1.293196e-004 
1.269006e-004 
1.247634e-004 
1.231203e-004 
1.219338e-004 
1.210713e-004 
1.206975e-004 
1.209039e-004 
1.215161e-004 
1.225100e-004 
1.240664e-004 
1.260762e-004 
1.283741e-004 
1.310477e-004 
1.341587e-004 
1.374718e-004 
1.409525e-004 
1.446959e-004 
1.486151e-004 
1.524960e-004 
1.564429e-004 
1.604510e-004 
1.643762e-004 
1.681194e-004 
1.718432e-004 
1.754156e-004 
1.787619e-004 
1.818812e-004 
1.849148e-004 
1.876500e-004 
1.901568e-004 
1.924421e-004 
1.946063e-004 
1.964183e-004 
1.980943e-004 
1.995526e-004 
2.008958e-004 
2.019003e-004 
2.028875e-004 
2.036305e-004 
2.043021e-004 
2.046676e-004 
2.051096e-004 
2.052546e-004 
2.053950e-004 
2.052668e-004 
2.052677e-004 
2.049739e-004 
2.047644e-004 
2.045629e-004 
2.044679e-004 
1.000000e+000 
1.000000e+000 
1.167554e-004 
1.166539e-004 
1.165307e-004 
1.164900e-004 
1.165655e-004 
1.167181e-004 
1.169208e-004 
1.172693e-004 
1.177152e-004 
1.182151e-004 
1.187865e-004 
1.194904e-004 
1.202339e-004 
1.210024e-004 
1.218647e-004 
1.228167e-004 
1.237603e-004 
1.247462e-004 
1.258465e-004 
1.269835e-004 
1.281069e-004 
1.293263e-004 
1.306552e-004 
1.319751e-004 
1.333257e-004 
1.348211e-004 
1.363822e-004 
1.379177e-004 
1.395556e-004 
1.413393e-004 
1.431200e-004 
1.449012e-004 
1.468407e-004 
1.488600e-004 
1.508178e-004 
1.528337e-004 
1.550002e-004 
1.571305e-004 
1.591822e-004 
1.613377e-004 
1.635463e-004 
1.655988e-004 
1.675980e-004 
1.696788e-004 
1.716432e-004 
1.733785e-004 
1.750905e-004 
1.767621e-004 
1.781401e-004 
1.792866e-004 
1.803884e-004 
1.812550e-004 
1.817252e-004 
1.820082e-004 
1.821441e-004 
1.818670e-004 
1.812139e-004 
1.804100e-004 
1.793135e-004 
1.777502e-004 
1.759347e-004 
1.739628e-004 
1.716114e-004 
1.689140e-004 
1.661205e-004 
1.631542e-004 
1.598792e-004 
1.565052e-004 
1.531646e-004 
1.497050e-004 
1.461744e-004 
1.428061e-004 
1.395752e-004 
1.363983e-004 
1.334507e-004 
1.308496e-004 
1.284997e-004 
1.264410e-004 
1.248320e-004 
1.236545e-004 
1.228461e-004 
1.225010e-004 
1.226670e-004 
1.232663e-004 
1.242888e-004 
1.257873e-004 
1.277125e-004 
1.299955e-004 
1.326339e-004 
1.356104e-004 
1.388439e-004 
1.422885e-004 
1.459173e-004 
1.496798e-004 
1.535066e-004 
1.573658e-004 
1.612153e-004 
1.650146e-004 
1.687154e-004 
1.722993e-004 
1.757316e-004 
1.789995e-004 
1.820697e-004 
1.849449e-004 
1.876065e-004 
1.900648e-004 
1.922946e-004 
1.943240e-004 
1.961405e-004 
1.977684e-004 
1.991850e-004 
2.004402e-004 
2.015106e-004 
2.024294e-004 
2.031732e-004 
2.038033e-004 
2.042732e-004 
2.046275e-004 
2.048440e-004 
2.049791e-004 
2.049757e-004 
2.048988e-004 
2.047629e-004 
2.045697e-004 
2.043472e-004 
2.041717e-004 
1.000000e+000 
1.000000e+000 
1.168399e-004 
1.166362e-004 
1.165645e-004 
1.165250e-004 
1.165930e-004 
1.167366e-004 
1.169850e-004 
1.172930e-004 
1.177289e-004 
1.182307e-004 
1.187984e-004 
1.194372e-004 
1.201684e-004 
1.209348e-004 
1.217489e-004 
1.226369e-004 
1.235785e-004 
1.245440e-004 
1.255659e-004 
1.266610e-004 
1.277879e-004 
1.289553e-004 
1.301980e-004 
1.315078e-004 
1.328485e-004 
1.342589e-004 
1.357527e-004 
1.373037e-004 
1.388981e-004 
1.405807e-004 
1.423367e-004 
1.441391e-004 
1.459938e-004 
1.479316e-004 
1.499176e-004 
1.519334e-004 
1.539912e-004 
1.561019e-004 
1.582218e-004 
1.603366e-004 
1.624570e-004 
1.645795e-004 
1.666502e-004 
1.686551e-004 
1.706103e-004 
1.724947e-004 
1.742375e-004 
1.758402e-004 
1.773293e-004 
1.786474e-004 
1.797199e-004 
1.805932e-004 
1.812820e-004 
1.816809e-004 
1.817609e-004 
1.816194e-004 
1.812131e-004 
1.804229e-004 
1.793229e-004 
1.780111e-004 
1.763617e-004 
1.743311e-004 
1.720977e-004 
1.696718e-004 
1.669005e-004 
1.638987e-004 
1.608529e-004 
1.576448e-004 
1.542203e-004 
1.508324e-004 
1.475391e-004 
1.441697e-004 
1.408613e-004 
1.378551e-004 
1.350294e-004 
1.323143e-004 
1.299827e-004 
1.280931e-004 
1.264475e-004 
1.251618e-004 
1.244563e-004 
1.241740e-004 
1.242102e-004 
1.247831e-004 
1.259034e-004 
1.273346e-004 
1.291388e-004 
1.314585e-004 
1.341087e-004 
1.369451e-004 
1.401182e-004 
1.435893e-004 
1.471312e-004 
1.507544e-004 
1.545650e-004 
1.583848e-004 
1.620941e-004 
1.657943e-004 
1.694789e-004 
1.729548e-004 
1.762546e-004 
1.794624e-004 
1.824893e-004 
1.852264e-004 
1.878040e-004 
1.902207e-004 
1.923854e-004 
1.942926e-004 
1.960837e-004 
1.976697e-004 
1.990264e-004 
2.002023e-004 
2.012951e-004 
2.021663e-004 
2.028848e-004 
2.034823e-004 
2.040092e-004 
2.043182e-004 
2.045611e-004 
2.047048e-004 
2.047828e-004 
2.046612e-004 
2.045595e-004 
2.043964e-004 
2.041804e-004 
2.038439e-004 
1.000000e+000 
1.000000e+000 
1.168917e-004 
1.166500e-004 
1.164993e-004 
1.164811e-004 
1.165316e-004 
1.166771e-004 
1.169528e-004 
1.172717e-004 
1.176566e-004 
1.181604e-004 
1.187500e-004 
1.193466e-004 
1.200223e-004 
1.208052e-004 
1.216045e-004 
1.224109e-004 
1.233243e-004 
1.243058e-004 
1.252623e-004 
1.262754e-004 
1.274117e-004 
1.285638e-004 
1.297042e-004 
1.309710e-004 
1.323378e-004 
1.336808e-004 
1.350764e-004 
1.366387e-004 
1.382374e-004 
1.398136e-004 
1.415222e-004 
1.433714e-004 
1.451844e-004 
1.470242e-004 
1.490377e-004 
1.510981e-004 
1.530815e-004 
1.551587e-004 
1.573671e-004 
1.594970e-004 
1.615592e-004 
1.637412e-004 
1.659202e-004 
1.679179e-004 
1.698837e-004 
1.719018e-004 
1.737360e-004 
1.753467e-004 
1.769332e-004 
1.784082e-004 
1.795498e-004 
1.804821e-004 
1.813238e-004 
1.818589e-004 
1.820083e-004 
1.819768e-004 
1.817237e-004 
1.810408e-004 
1.800287e-004 
1.788371e-004 
1.773077e-004 
1.753731e-004 
1.732285e-004 
1.708898e-004 
1.682133e-004 
1.652987e-004 
1.623008e-004 
1.591443e-004 
1.558094e-004 
1.524661e-004 
1.491634e-004 
1.458456e-004 
1.426070e-004 
1.395676e-004 
1.367154e-004 
1.340721e-004 
1.317424e-004 
1.297623e-004 
1.281322e-004 
1.269024e-004 
1.261096e-004 
1.257551e-004 
1.258549e-004 
1.264087e-004 
1.274016e-004 
1.288360e-004 
1.306896e-004 
1.329041e-004 
1.354667e-004 
1.383589e-004 
1.415005e-004 
1.448338e-004 
1.483610e-004 
1.520152e-004 
1.557067e-004 
1.594219e-004 
1.631526e-004 
1.668018e-004 
1.703317e-004 
1.737617e-004 
1.770569e-004 
1.801393e-004 
1.830392e-004 
1.857695e-004 
1.882843e-004 
1.905566e-004 
1.926559e-004 
1.945606e-004 
1.962446e-004 
1.977274e-004 
1.990755e-004 
2.002320e-004 
2.012147e-004 
2.020571e-004 
2.027972e-004 
2.033609e-004 
2.038166e-004 
2.041732e-004 
2.044389e-004 
2.045474e-004 
2.046069e-004 
2.045879e-004 
2.044787e-004 
2.042424e-004 
2.039035e-004 
2.035452e-004 
1.000000e+000 
1.000000e+000 
1.167360e-004 
1.164785e-004 
1.163448e-004 
1.163433e-004 
1.164066e-004 
1.165539e-004 
1.167907e-004 
1.171443e-004 
1.175537e-004 
1.180221e-004 
1.185782e-004 
1.192109e-004 
1.198690e-004 
1.205815e-004 
1.213709e-004 
1.221981e-004 
1.230419e-004 
1.239523e-004 
1.249281e-004 
1.259228e-004 
1.269544e-004 
1.280724e-004 
1.292447e-004 
1.304394e-004 
1.317068e-004 
1.330715e-004 
1.344786e-004 
1.359271e-004 
1.374807e-004 
1.391231e-004 
1.407950e-004 
1.425336e-004 
1.443902e-004 
1.463038e-004 
1.482342e-004 
1.502520e-004 
1.523669e-004 
1.544831e-004 
1.566047e-004 
1.588133e-004 
1.610510e-004 
1.632171e-004 
1.653770e-004 
1.675802e-004 
1.696946e-004 
1.716664e-004 
1.736115e-004 
1.754940e-004 
1.771447e-004 
1.786093e-004 
1.799991e-004 
1.811643e-004 
1.819853e-004 
1.826170e-004 
1.830793e-004 
1.831513e-004 
1.828598e-004 
1.823984e-004 
1.816374e-004 
1.804085e-004 
1.789132e-004 
1.772538e-004 
1.751954e-004 
1.727593e-004 
1.702250e-004 
1.675097e-004 
1.644285e-004 
1.612255e-004 
1.580773e-004 
1.547617e-004 
1.513057e-004 
1.480387e-004 
1.449135e-004 
1.417467e-004 
1.387914e-004 
1.362420e-004 
1.338836e-004 
1.317329e-004 
1.300948e-004 
1.289093e-004 
1.279850e-004 
1.275246e-004 
1.276643e-004 
1.281752e-004 
1.290327e-004 
1.304496e-004 
1.323212e-004 
1.344422e-004 
1.369303e-004 
1.398440e-004 
1.429524e-004 
1.461965e-004 
1.497027e-004 
1.533587e-004 
1.569777e-004 
1.606299e-004 
1.643475e-004 
1.679529e-004 
1.713942e-004 
1.747768e-004 
1.780312e-004 
1.810332e-004 
1.838457e-004 
1.865280e-004 
1.889699e-004 
1.911527e-004 
1.931757e-004 
1.950290e-004 
1.966281e-004 
1.980396e-004 
1.993280e-004 
2.004416e-004 
2.013526e-004 
2.021582e-004 
2.028600e-004 
2.034064e-004 
2.038177e-004 
2.041745e-004 
2.044252e-004 
2.045518e-004 
2.045884e-004 
2.045760e-004 
2.044186e-004 
2.041985e-004 
2.039066e-004 
2.034444e-004 
1.000000e+000 
1.000000e+000 
1.164973e-004 
1.162991e-004 
1.161316e-004 
1.160764e-004 
1.161669e-004 
1.163637e-004 
1.165864e-004 
1.169232e-004 
1.173641e-004 
1.178405e-004 
1.183555e-004 
1.189863e-004 
1.196627e-004 
1.203344e-004 
1.210763e-004 
1.219125e-004 
1.227381e-004 
1.235767e-004 
1.245255e-004 
1.255255e-004 
1.264986e-004 
1.275499e-004 
1.287251e-004 
1.299033e-004 
1.310938e-004 
1.324308e-004 
1.338586e-004 
1.352658e-004 
1.367635e-004 
1.384303e-004 
1.401231e-004 
1.418187e-004 
1.436776e-004 
1.456584e-004 
1.476078e-004 
1.496209e-004 
1.518104e-004 
1.540199e-004 
1.561784e-004 
1.584513e-004 
1.608226e-004 
1.630998e-004 
1.653400e-004 
1.676757e-004 
1.699564e-004 
1.720605e-004 
1.741343e-004 
1.761878e-004 
1.780182e-004 
1.796359e-004 
1.811762e-004 
1.825186e-004 
1.835241e-004 
1.843066e-004 
1.849029e-004 
1.851465e-004 
1.850290e-004 
1.846730e-004 
1.840143e-004 
1.829533e-004 
1.815805e-004 
1.799514e-004 
1.779844e-004 
1.756936e-004 
1.731783e-004 
1.704384e-004 
1.674617e-004 
1.643233e-004 
1.610785e-004 
1.577467e-004 
1.543836e-004 
1.510431e-004 
1.477701e-004 
1.446385e-004 
1.416903e-004 
1.389453e-004 
1.364914e-004 
1.343940e-004 
1.326261e-004 
1.312316e-004 
1.303141e-004 
1.298411e-004 
1.297615e-004 
1.301695e-004 
1.310841e-004 
1.323809e-004 
1.340654e-004 
1.362145e-004 
1.387132e-004 
1.414497e-004 
1.444918e-004 
1.478126e-004 
1.512360e-004 
1.547484e-004 
1.584056e-004 
1.620786e-004 
1.656509e-004 
1.691949e-004 
1.726908e-004 
1.759946e-004 
1.791069e-004 
1.821103e-004 
1.849156e-004 
1.874516e-004 
1.898021e-004 
1.919974e-004 
1.939341e-004 
1.956410e-004 
1.972086e-004 
1.986050e-004 
1.997662e-004 
2.007895e-004 
2.017099e-004 
2.024671e-004 
2.030573e-004 
2.035900e-004 
2.040247e-004 
2.043201e-004 
2.045145e-004 
2.046803e-004 
2.047206e-004 
2.046630e-004 
2.045228e-004 
2.042851e-004 
2.038475e-004 
2.033539e-004 
1.000000e+000 
1.000000e+000 
1.161166e-004 
1.158705e-004 
1.157851e-004 
1.157853e-004 
1.158486e-004 
1.160379e-004 
1.163199e-004 
1.166542e-004 
1.170604e-004 
1.175725e-004 
1.181202e-004 
1.186922e-004 
1.193441e-004 
1.200641e-004 
1.207779e-004 
1.215268e-004 
1.223643e-004 
1.232310e-004 
1.240880e-004 
1.250231e-004 
1.260472e-004 
1.270747e-004 
1.281316e-004 
1.293141e-004 
1.305669e-004 
1.318213e-004 
1.331701e-004 
1.346657e-004 
1.361967e-004 
1.377579e-004 
1.394758e-004 
1.413169e-004 
1.431590e-004 
1.450850e-004 
1.471927e-004 
1.493539e-004 
1.515002e-004 
1.537834e-004 
1.562037e-004 
1.585776e-004 
1.609453e-004 
1.634587e-004 
1.659816e-004 
1.683608e-004 
1.707523e-004 
1.732113e-004 
1.754950e-004 
1.775776e-004 
1.796653e-004 
1.816443e-004 
1.832745e-004 
1.847044e-004 
1.860663e-004 
1.870926e-004 
1.876919e-004 
1.881281e-004 
1.883469e-004 
1.880578e-004 
1.874041e-004 
1.866083e-004 
1.854248e-004 
1.837288e-004 
1.818369e-004 
1.797739e-004 
1.772501e-004 
1.744154e-004 
1.715643e-004 
1.685023e-004 
1.651098e-004 
1.617314e-004 
1.584482e-004 
1.550055e-004 
1.515583e-004 
1.484146e-004 
1.454195e-004 
1.424725e-004 
1.398902e-004 
1.377472e-004 
1.358195e-004 
1.342332e-004 
1.332262e-004 
1.326433e-004 
1.323816e-004 
1.326609e-004 
1.334897e-004 
1.346536e-004 
1.362094e-004 
1.382789e-004 
1.406918e-004 
1.433299e-004 
1.463026e-004 
1.495637e-004 
1.529213e-004 
1.563805e-004 
1.599914e-004 
1.636116e-004 
1.671418e-004 
1.706453e-004 
1.740875e-004 
1.773409e-004 
1.804138e-004 
1.833575e-004 
1.860953e-004 
1.885783e-004 
1.908712e-004 
1.929835e-004 
1.948508e-004 
1.964995e-004 
1.979908e-004 
1.993020e-004 
2.004086e-004 
2.013718e-004 
2.022170e-004 
2.029146e-004 
2.034750e-004 
2.039544e-004 
2.043402e-004 
2.046139e-004 
2.048000e-004 
2.049330e-004 
2.049607e-004 
2.048797e-004 
2.047154e-004 
2.044867e-004 
2.041175e-004 
2.035537e-004 
1.000000e+000 
1.000000e+000 
1.156687e-004 
1.154480e-004 
1.153300e-004 
1.153618e-004 
1.154577e-004 
1.156409e-004 
1.159478e-004 
1.163225e-004 
1.167210e-004 
1.172150e-004 
1.177923e-004 
1.183754e-004 
1.189877e-004 
1.196948e-004 
1.204275e-004 
1.211467e-004 
1.219341e-004 
1.228013e-004 
1.236555e-004 
1.245356e-004 
1.255275e-004 
1.265689e-004 
1.276037e-004 
1.287384e-004 
1.299975e-004 
1.312770e-004 
1.326043e-004 
1.340932e-004 
1.356782e-004 
1.372817e-004 
1.390094e-004 
1.409093e-004 
1.428573e-004 
1.448582e-004 
1.470344e-004 
1.493319e-004 
1.516387e-004 
1.540422e-004 
1.566024e-004 
1.591900e-004 
1.617664e-004 
1.644419e-004 
1.671738e-004 
1.698299e-004 
1.724509e-004 
1.750956e-004 
1.776471e-004 
1.800346e-004 
1.823274e-004 
1.845020e-004 
1.864410e-004 
1.881435e-004 
1.896481e-004 
1.908863e-004 
1.917967e-004 
1.924036e-004 
1.927051e-004 
1.926558e-004 
1.922429e-004 
1.914768e-004 
1.903650e-004 
1.889116e-004 
1.871041e-004 
1.849608e-004 
1.825472e-004 
1.798717e-004 
1.769094e-004 
1.737499e-004 
1.704884e-004 
1.670807e-004 
1.635520e-004 
1.600757e-004 
1.566791e-004 
1.532895e-004 
1.500524e-004 
1.471235e-004 
1.444068e-004 
1.419078e-004 
1.398502e-004 
1.382334e-004 
1.369158e-004 
1.360427e-004 
1.357535e-004 
1.358724e-004 
1.363567e-004 
1.374007e-004 
1.389328e-004 
1.407447e-004 
1.429380e-004 
1.455891e-004 
1.484661e-004 
1.514885e-004 
1.547996e-004 
1.582889e-004 
1.617414e-004 
1.652315e-004 
1.688128e-004 
1.722772e-004 
1.755595e-004 
1.787915e-004 
1.819015e-004 
1.847279e-004 
1.873547e-004 
1.898616e-004 
1.921140e-004 
1.940780e-004 
1.958947e-004 
1.975483e-004 
1.989298e-004 
2.001194e-004 
2.012184e-004 
2.021421e-004 
2.028607e-004 
2.034984e-004 
2.040688e-004 
2.044778e-004 
2.047749e-004 
2.050540e-004 
2.052448e-004 
2.052982e-004 
2.053024e-004 
2.052764e-004 
2.051037e-004 
2.047804e-004 
2.043510e-004 
2.038552e-004 
1.000000e+000 
1.000000e+000 
1.150225e-004 
1.148576e-004 
1.147831e-004 
1.148257e-004 
1.149807e-004 
1.152016e-004 
1.154762e-004 
1.158726e-004 
1.163402e-004 
1.168164e-004 
1.173512e-004 
1.179865e-004 
1.186249e-004 
1.192574e-004 
1.199773e-004 
1.207586e-004 
1.215024e-004 
1.222843e-004 
1.231823e-004 
1.240975e-004 
1.249913e-004 
1.260033e-004 
1.271323e-004 
1.282487e-004 
1.294168e-004 
1.307720e-004 
1.322075e-004 
1.336382e-004 
1.352236e-004 
1.370115e-004 
1.388236e-004 
1.406888e-004 
1.427926e-004 
1.450420e-004 
1.472736e-004 
1.496472e-004 
1.522679e-004 
1.549163e-004 
1.575434e-004 
1.603778e-004 
1.633549e-004 
1.662221e-004 
1.690984e-004 
1.721576e-004 
1.751536e-004 
1.779376e-004 
1.807580e-004 
1.836084e-004 
1.861600e-004 
1.884722e-004 
1.907885e-004 
1.928809e-004 
1.945139e-004 
1.959453e-004 
1.972510e-004 
1.980800e-004 
1.984414e-004 
1.986448e-004 
1.985230e-004 
1.978079e-004 
1.967626e-004 
1.955475e-004 
1.938471e-004 
1.916569e-004 
1.893280e-004 
1.867699e-004 
1.837419e-004 
1.805102e-004 
1.772840e-004 
1.738180e-004 
1.701270e-004 
1.665568e-004 
1.630687e-004 
1.594842e-004 
1.560502e-004 
1.529568e-004 
1.500228e-004 
1.472788e-004 
1.449944e-004 
1.431288e-004 
1.415518e-004 
1.404371e-004 
1.398840e-004 
1.397375e-004 
1.400031e-004 
1.408145e-004 
1.420883e-004 
1.437080e-004 
1.457386e-004 
1.481741e-004 
1.508723e-004 
1.537982e-004 
1.569737e-004 
1.602995e-004 
1.636805e-004 
1.671191e-004 
1.705754e-004 
1.739538e-004 
1.772268e-004 
1.803932e-004 
1.833970e-004 
1.861979e-004 
1.888078e-004 
1.912160e-004 
1.933930e-004 
1.953488e-004 
1.971018e-004 
1.986454e-004 
1.999849e-004 
2.011481e-004 
2.021461e-004 
2.029855e-004 
2.036875e-004 
2.042723e-004 
2.047449e-004 
2.051209e-004 
2.054116e-004 
2.056258e-004 
2.057640e-004 
2.058354e-004 
2.058269e-004 
2.057371e-004 
2.055512e-004 
2.052951e-004 
2.049195e-004 
2.043584e-004 
1.000000e+000 
1.000000e+000 
1.142957e-004 
1.142010e-004 
1.141657e-004 
1.142090e-004 
1.143769e-004 
1.146627e-004 
1.149758e-004 
1.153553e-004 
1.158370e-004 
1.163658e-004 
1.168964e-004 
1.174990e-004 
1.181651e-004 
1.188251e-004 
1.195006e-004 
1.202583e-004 
1.210417e-004 
1.218169e-004 
1.226584e-004 
1.235867e-004 
1.245268e-004 
1.255096e-004 
1.266135e-004 
1.277985e-004 
1.290181e-004 
1.303553e-004 
1.318415e-004 
1.334036e-004 
1.350546e-004 
1.368823e-004 
1.388540e-004 
1.409098e-004 
1.431122e-004 
1.455054e-004 
1.480144e-004 
1.506215e-004 
1.533959e-004 
1.563205e-004 
1.593158e-004 
1.623978e-004 
1.656034e-004 
1.688725e-004 
1.721425e-004 
1.754343e-004 
1.787475e-004 
1.820072e-004 
1.851621e-004 
1.882256e-004 
1.911819e-004 
1.939491e-004 
1.964782e-004 
1.987964e-004 
2.008841e-004 
2.026389e-004 
2.040384e-004 
2.051502e-004 
2.059240e-004 
2.062448e-004 
2.061724e-004 
2.057938e-004 
2.049902e-004 
2.037012e-004 
2.020970e-004 
2.002019e-004 
1.978509e-004 
1.951356e-004 
1.922665e-004 
1.891330e-004 
1.856431e-004 
1.820603e-004 
1.784842e-004 
1.747136e-004 
1.708627e-004 
1.672315e-004 
1.637081e-004 
1.601725e-004 
1.569362e-004 
1.541190e-004 
1.514783e-004 
1.491230e-004 
1.473562e-004 
1.460225e-004 
1.449651e-004 
1.444653e-004 
1.445835e-004 
1.450276e-004 
1.458622e-004 
1.473089e-004 
1.491514e-004 
1.512012e-004 
1.536601e-004 
1.565126e-004 
1.594577e-004 
1.625188e-004 
1.658412e-004 
1.692100e-004 
1.724550e-004 
1.757297e-004 
1.790155e-004 
1.820762e-004 
1.849390e-004 
1.877393e-004 
1.903361e-004 
1.926170e-004 
1.947280e-004 
1.967006e-004 
1.983813e-004 
1.998103e-004 
2.011306e-004 
2.022759e-004 
2.031659e-004 
2.039308e-004 
2.046297e-004 
2.051590e-004 
2.055331e-004 
2.058842e-004 
2.061723e-004 
2.063201e-004 
2.064032e-004 
2.064895e-004 
2.064733e-004 
2.063475e-004 
2.061768e-004 
2.059263e-004 
2.054749e-004 
2.049436e-004 
1.000000e+000 
1.000000e+000 
1.134634e-004 
1.133560e-004 
1.134057e-004 
1.135502e-004 
1.137188e-004 
1.139974e-004 
1.143885e-004 
1.148064e-004 
1.152486e-004 
1.158061e-004 
1.164060e-004 
1.169770e-004 
1.176047e-004 
1.183305e-004 
1.190274e-004 
1.197102e-004 
1.205064e-004 
1.213613e-004 
1.221637e-004 
1.230390e-004 
1.240697e-004 
1.251128e-004 
1.261547e-004 
1.273831e-004 
1.287598e-004 
1.301274e-004 
1.316102e-004 
1.333557e-004 
1.351949e-004 
1.370596e-004 
1.391730e-004 
1.415405e-004 
1.439341e-004 
1.464449e-004 
1.492811e-004 
1.522668e-004 
1.552389e-004 
1.584295e-004 
1.618980e-004 
1.653495e-004 
1.687933e-004 
1.724884e-004 
1.762731e-004 
1.798797e-004 
1.835089e-004 
1.872895e-004 
1.908882e-004 
1.942191e-004 
1.975727e-004 
2.008413e-004 
2.036864e-004 
2.062648e-004 
2.087774e-004 
2.109122e-004 
2.125187e-004 
2.139031e-004 
2.150370e-004 
2.155801e-004 
2.156577e-004 
2.155249e-004 
2.149390e-004 
2.137457e-004 
2.122500e-004 
2.104945e-004 
2.082030e-004 
2.054968e-004 
2.026448e-004 
1.994914e-004 
1.959369e-004 
1.922641e-004 
1.885483e-004 
1.846152e-004 
1.805974e-004 
1.767220e-004 
1.729040e-004 
1.691194e-004 
1.655885e-004 
1.623632e-004 
1.593603e-004 
1.566953e-004 
1.544888e-004 
1.526824e-004 
1.512886e-004 
1.504074e-004 
1.500163e-004 
1.500723e-004 
1.506173e-004 
1.516329e-004 
1.530518e-004 
1.548693e-004 
1.570551e-004 
1.595219e-004 
1.622379e-004 
1.651752e-004 
1.682363e-004 
1.713647e-004 
1.745529e-004 
1.777244e-004 
1.807989e-004 
1.837825e-004 
1.866519e-004 
1.893257e-004 
1.917963e-004 
1.940968e-004 
1.961815e-004 
1.980170e-004 
1.996551e-004 
2.011125e-004 
2.023443e-004 
2.033801e-004 
2.042802e-004 
2.050290e-004 
2.056088e-004 
2.060870e-004 
2.064865e-004 
2.067740e-004 
2.069676e-004 
2.071276e-004 
2.072239e-004 
2.072362e-004 
2.071928e-004 
2.071080e-004 
2.069199e-004 
2.066545e-004 
2.063214e-004 
2.058246e-004 
1.000000e+000 
1.000000e+000 
1.125414e-004 
1.125176e-004 
1.125589e-004 
1.127455e-004 
1.129996e-004 
1.132962e-004 
1.136837e-004 
1.141652e-004 
1.146534e-004 
1.151777e-004 
1.157863e-004 
1.164293e-004 
1.170520e-004 
1.177283e-004 
1.184737e-004 
1.192157e-004 
1.199632e-004 
1.208037e-004 
1.217039e-004 
1.226105e-004 
1.235930e-004 
1.247092e-004 
1.258898e-004 
1.271322e-004 
1.285325e-004 
1.300926e-004 
1.317398e-004 
1.335270e-004 
1.355341e-004 
1.377085e-004 
1.400039e-004 
1.425088e-004 
1.452548e-004 
1.481523e-004 
1.511949e-004 
1.544762e-004 
1.579635e-004 
1.615503e-004 
1.652730e-004 
1.692017e-004 
1.732331e-004 
1.772696e-004 
1.813916e-004 
1.856167e-004 
1.897767e-004 
1.938239e-004 
1.978748e-004 
2.018583e-004 
2.055768e-004 
2.090834e-004 
2.124882e-004 
2.156056e-004 
2.182914e-004 
2.207196e-004 
2.229096e-004 
2.245934e-004 
2.257869e-004 
2.267231e-004 
2.272526e-004 
2.271485e-004 
2.266391e-004 
2.258686e-004 
2.245396e-004 
2.226356e-004 
2.205085e-004 
2.180750e-004 
2.150586e-004 
2.117326e-004 
2.083535e-004 
2.046262e-004 
2.005214e-004 
1.964729e-004 
1.924504e-004 
1.881625e-004 
1.839101e-004 
1.799979e-004 
1.761362e-004 
1.722966e-004 
1.689205e-004 
1.659708e-004 
1.631561e-004 
1.607570e-004 
1.590251e-004 
1.576529e-004 
1.565975e-004 
1.562094e-004 
1.563836e-004 
1.568263e-004 
1.577384e-004 
1.592505e-004 
1.610418e-004 
1.630422e-004 
1.654742e-004 
1.681851e-004 
1.709101e-004 
1.737747e-004 
1.768371e-004 
1.798289e-004 
1.826895e-004 
1.855789e-004 
1.883854e-004 
1.909224e-004 
1.932970e-004 
1.955809e-004 
1.976055e-004 
1.993471e-004 
2.009574e-004 
2.024006e-004 
2.035614e-004 
2.045397e-004 
2.054306e-004 
2.061417e-004 
2.066539e-004 
2.071020e-004 
2.074888e-004 
2.077283e-004 
2.078775e-004 
2.080306e-004 
2.081146e-004 
2.080891e-004 
2.080373e-004 
2.079809e-004 
2.078084e-004 
2.075127e-004 
2.071529e-004 
2.067463e-004 
1.000000e+000 
1.000000e+000 
1.114509e-004 
1.115342e-004 
1.116620e-004 
1.118568e-004 
1.121721e-004 
1.125523e-004 
1.129319e-004 
1.134106e-004 
1.139811e-004 
1.145351e-004 
1.150994e-004 
1.157786e-004 
1.164758e-004 
1.171240e-004 
1.178470e-004 
1.186754e-004 
1.194631e-004 
1.202603e-004 
1.212158e-004 
1.222421e-004 
1.232368e-004 
1.243711e-004 
1.257127e-004 
1.270889e-004 
1.285282e-004 
1.302425e-004 
1.321486e-004 
1.340907e-004 
1.362473e-004 
1.387447e-004 
1.413680e-004 
1.440898e-004 
1.471595e-004 
1.505204e-004 
1.539327e-004 
1.575417e-004 
1.615253e-004 
1.656419e-004 
1.697642e-004 
1.741481e-004 
1.787755e-004 
1.833313e-004 
1.878839e-004 
1.926541e-004 
1.974070e-004 
2.019221e-004 
2.064289e-004 
2.109692e-004 
2.152025e-004 
2.191235e-004 
2.229781e-004 
2.265861e-004 
2.296888e-004 
2.324803e-004 
2.350594e-004 
2.371304e-004 
2.386536e-004 
2.398737e-004 
2.406867e-004 
2.408714e-004 
2.405923e-004 
2.399756e-004 
2.388194e-004 
2.371064e-004 
2.350512e-004 
2.326156e-004 
2.296794e-004 
2.263912e-004 
2.228629e-004 
2.190065e-004 
2.148700e-004 
2.106091e-004 
2.062265e-004 
2.017285e-004 
1.972443e-004 
1.928295e-004 
1.884993e-004 
1.843583e-004 
1.804665e-004 
1.768310e-004 
1.735521e-004 
1.706926e-004 
1.682146e-004 
1.661848e-004 
1.646965e-004 
1.636734e-004 
1.630905e-004 
1.630590e-004 
1.635272e-004 
1.643579e-004 
1.656142e-004 
1.673208e-004 
1.692931e-004 
1.714778e-004 
1.739592e-004 
1.766130e-004 
1.792746e-004 
1.820071e-004 
1.848121e-004 
1.875039e-004 
1.900523e-004 
1.925533e-004 
1.949119e-004 
1.970097e-004 
1.989379e-004 
2.007382e-004 
2.022862e-004 
2.035882e-004 
2.047669e-004 
2.057854e-004 
2.065651e-004 
2.072071e-004 
2.077813e-004 
2.082041e-004 
2.084784e-004 
2.087251e-004 
2.089246e-004 
2.090026e-004 
2.090282e-004 
2.090696e-004 
2.090333e-004 
2.088927e-004 
2.087366e-004 
2.085618e-004 
2.082536e-004 
2.078013e-004 
1.000000e+000 
1.000000e+000 
1.103233e-004 
1.104682e-004 
1.106871e-004 
1.109419e-004 
1.112557e-004 
1.116896e-004 
1.121608e-004 
1.126363e-004 
1.131847e-004 
1.138203e-004 