# vtk DataFile Version 2.0
2D-ADE data file 
ASCII
DATASET RECTILINEAR_GRID
DIMENSIONS 128 128 1
X_COORDINATES 128 int
0 1 2 3 4 5 6 7 8 9 10 11 12 13 14 15 16 17 18 19 20 21 22 23 24 25 26 27 28 29 30 31 32 33 34 35 36 37 38 39 40 41 42 43 44 45 46 47 48 49 50 51 52 53 54 55 56 57 58 59 60 61 62 63 64 65 66 67 68 69 70 71 72 73 74 75 76 77 78 79 80 81 82 83 84 85 86 87 88 89 90 91 92 93 94 95 96 97 98 99 100 101 102 103 104 105 106 107 108 109 110 111 112 113 114 115 116 117 118 119 120 121 122 123 124 125 126 127 
Y_COORDINATES 128 int
0 1 2 3 4 5 6 7 8 9 10 11 12 13 14 15 16 17 18 19 20 21 22 23 24 25 26 27 28 29 30 31 32 33 34 35 36 37 38 39 40 41 42 43 44 45 46 47 48 49 50 51 52 53 54 55 56 57 58 59 60 61 62 63 64 65 66 67 68 69 70 71 72 73 74 75 76 77 78 79 80 81 82 83 84 85 86 87 88 89 90 91 92 93 94 95 96 97 98 99 100 101 102 103 104 105 106 107 108 109 110 111 112 113 114 115 116 117 118 119 120 121 122 123 124 125 126 127 
Z_COORDINATES 1 int
0
POINT_DATA 16384 
SCALARS density double 1
LOOKUP_TABLE default
1.000000e+000 
1.000000e+000 
1.000000e+000 
1.000000e+000 
1.000000e+000 
1.000000e+000 
1.000000e+000 
1.000000e+000 
1.000000e+000 
1.000000e+000 
1.000000e+000 
1.000000e+000 
1.000000e+000 
1.000000e+000 
1.000000e+000 
1.000000e+000 
1.000000e+000 
1.000000e+000 
1.000000e+000 
1.000000e+000 
1.000000e+000 
1.000000e+000 
1.000000e+000 
1.000000e+000 
1.000000e+000 
1.000000e+000 
1.000000e+000 
1.000000e+000 
1.000000e+000 
1.000000e+000 
1.000000e+000 
1.000000e+000 
1.000000e+000 
1.000000e+000 
1.000000e+000 
1.000000e+000 
1.000000e+000 
1.000000e+000 
1.000000e+000 
1.000000e+000 
1.000000e+000 
1.000000e+000 
1.000000e+000 
1.000000e+000 
1.000000e+000 
1.000000e+000 
1.000000e+000 
1.000000e+000 
1.000000e+000 
1.000000e+000 
1.000000e+000 
1.000000e+000 
1.000000e+000 
1.000000e+000 
1.000000e+000 
1.000000e+000 
1.000000e+000 
1.000000e+000 
1.000000e+000 
1.000000e+000 
1.000000e+000 
1.000000e+000 
1.000000e+000 
1.000000e+000 
1.000000e+000 
1.000000e+000 
1.000000e+000 
1.000000e+000 
1.000000e+000 
1.000000e+000 
1.000000e+000 
1.000000e+000 
1.000000e+000 
1.000000e+000 
1.000000e+000 
1.000000e+000 
1.000000e+000 
1.000000e+000 
1.000000e+000 
1.000000e+000 
1.000000e+000 
1.000000e+000 
1.000000e+000 
1.000000e+000 
1.000000e+000 
1.000000e+000 
1.000000e+000 
1.000000e+000 
1.000000e+000 
1.000000e+000 
1.000000e+000 
1.000000e+000 
1.000000e+000 
1.000000e+000 
1.000000e+000 
1.000000e+000 
1.000000e+000 
1.000000e+000 
1.000000e+000 
1.000000e+000 
1.000000e+000 
1.000000e+000 
1.000000e+000 
1.000000e+000 
1.000000e+000 
1.000000e+000 
1.000000e+000 
1.000000e+000 
1.000000e+000 
1.000000e+000 
1.000000e+000 
1.000000e+000 
1.000000e+000 
1.000000e+000 
1.000000e+000 
1.000000e+000 
1.000000e+000 
1.000000e+000 
1.000000e+000 
1.000000e+000 
1.000000e+000 
1.000000e+000 
1.000000e+000 
1.000000e+000 
1.000000e+000 
1.000000e+000 
1.000000e+000 
1.000000e+000 
1.000000e+000 
1.167009e-004 
1.166040e-004 
1.164656e-004 
1.163838e-004 
1.163360e-004 
1.164889e-004 
1.167289e-004 
1.170917e-004 
1.175194e-004 
1.181174e-004 
1.187705e-004 
1.194900e-004 
1.202875e-004 
1.211949e-004 
1.221137e-004 
1.230769e-004 
1.241338e-004 
1.252448e-004 
1.263533e-004 
1.275308e-004 
1.288104e-004 
1.301025e-004 
1.314194e-004 
1.328477e-004 
1.343614e-004 
1.358672e-004 
1.374530e-004 
1.391699e-004 
1.409273e-004 
1.426847e-004 
1.445755e-004 
1.465663e-004 
1.485420e-004 
1.505523e-004 
1.527105e-004 
1.548838e-004 
1.570036e-004 
1.591972e-004 
1.614823e-004 
1.636690e-004 
1.657966e-004 
1.680001e-004 
1.701613e-004 
1.721249e-004 
1.740454e-004 
1.759652e-004 
1.776661e-004 
1.791246e-004 
1.805374e-004 
1.817871e-004 
1.826703e-004 
1.833291e-004 
1.838775e-004 
1.840675e-004 
1.838457e-004 
1.834455e-004 
1.828038e-004 
1.816781e-004 
1.802226e-004 
1.786112e-004 
1.766267e-004 
1.741954e-004 
1.715977e-004 
1.688282e-004 
1.656655e-004 
1.622689e-004 
1.588686e-004 
1.552972e-004 
1.514998e-004 
1.477671e-004 
1.441453e-004 
1.404551e-004 
1.368530e-004 
1.335698e-004 
1.304852e-004 
1.275570e-004 
1.250321e-004 
1.229573e-004 
1.211816e-004 
1.198153e-004 
1.190202e-004 
1.186880e-004 
1.187510e-004 
1.193611e-004 
1.205117e-004 
1.220581e-004 
1.240214e-004 
1.264776e-004 
1.292975e-004 
1.323928e-004 
1.358056e-004 
1.395066e-004 
1.433423e-004 
1.473013e-004 
1.513872e-004 
1.555155e-004 
1.595789e-004 
1.636165e-004 
1.675796e-004 
1.713986e-004 
1.750267e-004 
1.785215e-004 
1.817992e-004 
1.848512e-004 
1.876640e-004 
1.902963e-004 
1.926529e-004 
1.947962e-004 
1.967030e-004 
1.984380e-004 
1.999029e-004 
2.012180e-004 
2.023151e-004 
2.032825e-004 
2.040080e-004 
2.046520e-004 
2.050854e-004 
2.054359e-004 
2.055597e-004 
2.056513e-004 
2.055368e-004 
2.053835e-004 
2.050391e-004 
2.047351e-004 
2.044593e-004 
2.043332e-004 
1.000000e+000 
1.000000e+000 
1.167875e-004 
1.166874e-004 
1.165745e-004 
1.165960e-004 
1.165635e-004 
1.167317e-004 
1.169386e-004 
1.173327e-004 
1.177200e-004 
1.182848e-004 
1.189001e-004 
1.196113e-004 
1.203464e-004 
1.212101e-004 
1.221041e-004 
1.230359e-004 
1.240301e-004 
1.251079e-004 
1.261994e-004 
1.273280e-004 
1.285541e-004 
1.298241e-004 
1.311169e-004 
1.324812e-004 
1.339518e-004 
1.354368e-004 
1.369790e-004 
1.386216e-004 
1.403452e-004 
1.420730e-004 
1.438968e-004 
1.458122e-004 
1.477643e-004 
1.497296e-004 
1.518021e-004 
1.539146e-004 
1.560221e-004 
1.581508e-004 
1.603472e-004 
1.625076e-004 
1.646300e-004 
1.667492e-004 
1.688484e-004 
1.708352e-004 
1.727434e-004 
1.745756e-004 
1.762804e-004 
1.778056e-004 
1.791844e-004 
1.803845e-004 
1.813645e-004 
1.820995e-004 
1.825995e-004 
1.828346e-004 
1.827877e-004 
1.824310e-004 
1.817741e-004 
1.808224e-004 
1.795554e-004 
1.779455e-004 
1.760495e-004 
1.738894e-004 
1.714169e-004 
1.686575e-004 
1.657232e-004 
1.625946e-004 
1.592303e-004 
1.557583e-004 
1.522755e-004 
1.487002e-004 
1.450807e-004 
1.416104e-004 
1.382786e-004 
1.350107e-004 
1.319812e-004 
1.293207e-004 
1.269043e-004 
1.247686e-004 
1.231259e-004 
1.219385e-004 
1.210738e-004 
1.206968e-004 
1.208985e-004 
1.215049e-004 
1.224918e-004 
1.240401e-004 
1.260410e-004 
1.283291e-004 
1.309922e-004 
1.340923e-004 
1.373939e-004 
1.408631e-004 
1.445948e-004 
1.485024e-004 
1.523720e-004 
1.563079e-004 
1.603054e-004 
1.642206e-004 
1.679544e-004 
1.716695e-004 
1.752339e-004 
1.785730e-004 
1.816858e-004 
1.847136e-004 
1.874438e-004 
1.899462e-004 
1.922278e-004 
1.943889e-004 
1.961983e-004 
1.978721e-004 
1.993288e-004 
2.006706e-004 
2.016742e-004 
2.026605e-004 
2.034031e-004 
2.040744e-004 
2.044398e-004 
2.048817e-004 
2.050271e-004 
2.051676e-004 
2.050399e-004 
2.050411e-004 
2.047479e-004 
2.045388e-004 
2.043376e-004 
2.042428e-004 
1.000000e+000 
1.000000e+000 
1.169156e-004 
1.168146e-004 
1.166920e-004 
1.166517e-004 
1.167273e-004 
1.168799e-004 
1.170822e-004 
1.174300e-004 
1.178749e-004 
1.183735e-004 
1.189432e-004 
1.196452e-004 
1.203867e-004 
1.211530e-004 
1.220128e-004 
1.229623e-004 
1.239033e-004 
1.248864e-004 
1.259839e-004 
1.271178e-004 
1.282381e-004 
1.294541e-004 
1.307795e-004 
1.320957e-004 
1.334423e-004 
1.349335e-004 
1.364902e-004 
1.380209e-004 
1.396537e-004 
1.414320e-004 
1.432070e-004 
1.449822e-004 
1.469155e-004 
1.489281e-004 
1.508791e-004 
1.528877e-004 
1.550468e-004 
1.571694e-004 
1.592133e-004 
1.613607e-004 
1.635612e-004 
1.656055e-004 
1.675964e-004 
1.696690e-004 
1.716253e-004 
1.733527e-004 
1.750570e-004 
1.767212e-004 
1.780922e-004 
1.792321e-004 
1.803280e-004 
1.811892e-004 
1.816547e-004 
1.819336e-004 
1.820663e-004 
1.817869e-004 
1.811322e-004 
1.803276e-004 
1.792314e-004 
1.776692e-004 
1.758557e-004 
1.738866e-004 
1.715388e-004 
1.688457e-004 
1.660571e-004 
1.630963e-004 
1.598271e-004 
1.564593e-004 
1.531251e-004 
1.496719e-004 
1.461475e-004 
1.427852e-004 
1.395599e-004 
1.363880e-004 
1.334447e-004 
1.308470e-004 
1.284997e-004 
1.264424e-004 
1.248338e-004 
1.236555e-004 
1.228449e-004 
1.224965e-004 
1.226580e-004 
1.232515e-004 
1.242672e-004 
1.257577e-004 
1.276742e-004 
1.299475e-004 
1.325756e-004 
1.355414e-004 
1.387637e-004 
1.421969e-004 
1.458143e-004 
1.495655e-004 
1.533811e-004 
1.572296e-004 
1.610687e-004 
1.648583e-004 
1.685499e-004 
1.721253e-004 
1.755500e-004 
1.788107e-004 
1.818746e-004 
1.847443e-004 
1.874010e-004 
1.898550e-004 
1.920812e-004 
1.941075e-004 
1.959215e-004 
1.975472e-004 
1.989622e-004 
2.002160e-004 
2.012855e-004 
2.022034e-004 
2.029467e-004 
2.035766e-004 
2.040462e-004 
2.044005e-004 
2.046172e-004 
2.047525e-004 
2.047493e-004 
2.046728e-004 
2.045372e-004 
2.043444e-004 
2.041223e-004 
2.039471e-004 
1.000000e+000 
1.000000e+000 
1.169995e-004 
1.167965e-004 
1.167254e-004 
1.166863e-004 
1.167543e-004 
1.168979e-004 
1.171459e-004 
1.174532e-004 
1.178881e-004 
1.183886e-004 
1.189547e-004 
1.195917e-004 
1.203209e-004 
1.210853e-004 
1.218970e-004 
1.227826e-004 
1.237217e-004 
1.246845e-004 
1.257036e-004 
1.267958e-004 
1.279197e-004 
1.290839e-004 
1.303232e-004 
1.316293e-004 
1.329663e-004 
1.343725e-004 
1.358619e-004 
1.374084e-004 
1.389978e-004 
1.406750e-004 
1.424255e-004 
1.442220e-004 
1.460705e-004 
1.480017e-004 
1.499810e-004 
1.519897e-004 
1.540400e-004 
1.561431e-004 
1.582552e-004 
1.603619e-004 
1.624740e-004 
1.645883e-004 
1.666507e-004 
1.686472e-004 
1.705942e-004 
1.724706e-004 
1.742055e-004 
1.758006e-004 
1.772825e-004 
1.785939e-004 
1.796601e-004 
1.805277e-004 
1.812115e-004 
1.816062e-004 
1.816827e-004 
1.815385e-004 
1.811304e-004 
1.803393e-004 
1.792393e-004 
1.779283e-004 
1.762806e-004 
1.742526e-004 
1.720226e-004 
1.696008e-004 
1.668341e-004 
1.638376e-004 
1.607976e-004 
1.575955e-004 
1.541772e-004 
1.507956e-004 
1.475085e-004 
1.441449e-004 
1.408421e-004 
1.378409e-004 
1.350194e-004 
1.323078e-004 
1.299788e-004 
1.280907e-004 
1.264455e-004 
1.251590e-004 
1.244514e-004 
1.241659e-004 
1.241976e-004 
1.247649e-004 
1.258784e-004 
1.273018e-004 
1.290973e-004 
1.314075e-004 
1.340475e-004 
1.368733e-004 
1.400353e-004 
1.434952e-004 
1.470258e-004 
1.506378e-004 
1.544374e-004 
1.582467e-004 
1.619459e-004 
1.656365e-004 
1.693121e-004 
1.727799e-004 
1.760720e-004 
1.792730e-004 
1.822938e-004 
1.850255e-004 
1.875983e-004 
1.900109e-004 
1.921721e-004 
1.940764e-004 
1.958651e-004 
1.974490e-004 
1.988041e-004 
1.999788e-004 
2.010706e-004 
2.019411e-004 
2.026590e-004 
2.032562e-004 
2.037830e-004 
2.040919e-004 
2.043348e-004 
2.044787e-004 
2.045569e-004 
2.044356e-004 
2.043343e-004 
2.041715e-004 
2.039559e-004 
2.036198e-004 
1.000000e+000 
1.000000e+000 
1.170506e-004 
1.168098e-004 
1.166599e-004 
1.166422e-004 
1.166929e-004 
1.168382e-004 
1.171134e-004 
1.174316e-004 
1.178155e-004 
1.183180e-004 
1.189061e-004 
1.195010e-004 
1.201746e-004 
1.209555e-004 
1.217527e-004 
1.225567e-004 
1.234676e-004 
1.244467e-004 
1.254005e-004 
1.264108e-004 
1.275442e-004 
1.286932e-004 
1.298304e-004 
1.310936e-004 
1.324568e-004 
1.337958e-004 
1.351871e-004 
1.367448e-004 
1.383388e-004 
1.399098e-004 
1.416129e-004 
1.434562e-004 
1.452631e-004 
1.470964e-004 
1.491031e-004 
1.511564e-004 
1.531323e-004 
1.552018e-004 
1.574022e-004 
1.595241e-004 
1.615779e-004 
1.637514e-004 
1.659219e-004 
1.679111e-004 
1.698685e-004 
1.718782e-004 
1.737043e-004 
1.753070e-004 
1.768860e-004 
1.783539e-004 
1.794889e-004 
1.804152e-004 
1.812516e-004 
1.817820e-004 
1.819277e-004 
1.818932e-004 
1.816379e-004 
1.809538e-004 
1.799414e-004 
1.787504e-004 
1.772224e-004 
1.752903e-004 
1.731488e-004 
1.708140e-004 
1.681421e-004 
1.652327e-004 
1.622404e-004 
1.590898e-004 
1.557611e-004 
1.524240e-004 
1.491275e-004 
1.458157e-004 
1.425827e-004 
1.395483e-004 
1.367005e-004 
1.340608e-004 
1.317337e-004 
1.297552e-004 
1.281257e-004 
1.268950e-004 
1.261004e-004 
1.257428e-004 
1.258382e-004 
1.263865e-004 
1.273728e-004 
1.287995e-004 
1.306444e-004 
1.328496e-004 
1.354021e-004 
1.382837e-004 
1.414144e-004 
1.447366e-004 
1.482527e-004 
1.518957e-004 
1.555765e-004 
1.592813e-004 
1.630020e-004 
1.666418e-004 
1.701630e-004 
1.735848e-004 
1.768727e-004 
1.799484e-004 
1.828424e-004 
1.855675e-004 
1.880777e-004 
1.903462e-004 
1.924421e-004 
1.943440e-004 
1.960258e-004 
1.975067e-004 
1.988533e-004 
2.000087e-004 
2.009905e-004 
2.018322e-004 
2.025718e-004 
2.031353e-004 
2.035908e-004 
2.039473e-004 
2.042131e-004 
2.043217e-004 
2.043813e-004 
2.043626e-004 
2.042537e-004 
2.040179e-004 
2.036795e-004 
2.033218e-004 
1.000000e+000 
1.000000e+000 
1.168947e-004 
1.166385e-004 
1.165054e-004 
1.165044e-004 
1.165680e-004 
1.167151e-004 
1.169514e-004 
1.173042e-004 
1.177126e-004 
1.181797e-004 
1.187342e-004 
1.193652e-004 
1.200214e-004 
1.207319e-004 
1.215192e-004 
1.223441e-004 
1.231856e-004 
1.240936e-004 
1.250669e-004 
1.260589e-004 
1.270878e-004 
1.282027e-004 
1.293720e-004 
1.305633e-004 
1.318271e-004 
1.331879e-004 
1.345909e-004 
1.360350e-004 
1.375837e-004 
1.392211e-004 
1.408875e-004 
1.426203e-004 
1.444707e-004 
1.463778e-004 
1.483013e-004 
1.503118e-004 
1.524192e-004 
1.545276e-004 
1.566410e-004 
1.588412e-004 
1.610704e-004 
1.632277e-004 
1.653787e-004 
1.675730e-004 
1.696786e-004 
1.716416e-004 
1.735781e-004 
1.754524e-004 
1.770951e-004 
1.785521e-004 
1.799349e-004 
1.810937e-004 
1.819089e-004 
1.825356e-004 
1.829936e-004 
1.830623e-004 
1.827683e-004 
1.823053e-004 
1.815438e-004 
1.803151e-004 
1.788211e-004 
1.771639e-004 
1.751085e-004 
1.726761e-004 
1.701464e-004 
1.674361e-004 
1.643606e-004 
1.611635e-004 
1.580215e-004 
1.547123e-004 
1.512625e-004 
1.480016e-004 
1.448821e-004 
1.417205e-004 
1.387698e-004 
1.362241e-004 
1.338686e-004 
1.317197e-004 
1.300823e-004 
1.288964e-004 
1.279704e-004 
1.275070e-004 
1.276426e-004 
1.281482e-004 
1.289992e-004 
1.304085e-004 
1.322717e-004 
1.343835e-004 
1.368616e-004 
1.397648e-004 
1.428625e-004 
1.460956e-004 
1.495907e-004 
1.532358e-004 
1.568441e-004 
1.604860e-004 
1.641938e-004 
1.677900e-004 
1.712227e-004 
1.745973e-004 
1.778446e-004 
1.808401e-004 
1.836468e-004 
1.863242e-004 
1.887618e-004 
1.909409e-004 
1.929607e-004 
1.948115e-004 
1.964085e-004 
1.978183e-004 
1.991054e-004 
2.002180e-004 
2.011282e-004 
2.019332e-004 
2.026347e-004 
2.031809e-004 
2.035920e-004 
2.039488e-004 
2.041996e-004 
2.043263e-004 
2.043631e-004 
2.043509e-004 
2.041939e-004 
2.039742e-004 
2.036828e-004 
2.032213e-004 
1.000000e+000 
1.000000e+000 
1.166560e-004 
1.164590e-004 
1.162926e-004 
1.162379e-004 
1.163286e-004 
1.165252e-004 
1.167473e-004 
1.170833e-004 
1.175232e-004 
1.179983e-004 
1.185117e-004 
1.191407e-004 
1.198153e-004 
1.204850e-004 
1.212248e-004 
1.220588e-004 
1.228823e-004 
1.237185e-004 
1.246649e-004 
1.256625e-004 
1.266329e-004 
1.276814e-004 
1.288535e-004 
1.300286e-004 
1.312155e-004 
1.325486e-004 
1.339724e-004 
1.353753e-004 
1.368682e-004 
1.385298e-004 
1.402172e-004 
1.419070e-004 
1.437595e-004 
1.457337e-004 
1.476761e-004 
1.496817e-004 
1.518633e-004 
1.540647e-004 
1.562148e-004 
1.584789e-004 
1.608412e-004 
1.631092e-004 
1.653401e-004 
1.676663e-004 
1.699377e-004 
1.720324e-004 
1.740971e-004 
1.761417e-004 
1.779636e-004 
1.795731e-004 
1.811059e-004 
1.824413e-004 
1.834405e-004 
1.842175e-004 
1.848091e-004 
1.850490e-004 
1.849286e-004 
1.845707e-004 
1.839111e-004 
1.828502e-004 
1.814784e-004 
1.798512e-004 
1.778871e-004 
1.756000e-004 
1.730891e-004 
1.703543e-004 
1.673832e-004 
1.642508e-004 
1.610123e-004 
1.576869e-004 
1.543302e-004 
1.509960e-004 
1.477290e-004 
1.446029e-004 
1.416595e-004 
1.389185e-004 
1.364678e-004 
1.343726e-004 
1.326057e-004 
1.312111e-004 
1.302923e-004 
1.298167e-004 
1.297332e-004 
1.301362e-004 
1.310446e-004 
1.323342e-004 
1.340106e-004 
1.361505e-004 
1.386396e-004 
1.413659e-004 
1.443973e-004 
1.477072e-004 
1.511197e-004 
1.546214e-004 
1.582680e-004 
1.619308e-004 
1.654936e-004 
1.690283e-004 
1.725159e-004 
1.758119e-004 
1.789173e-004 
1.819144e-004 
1.847142e-004 
1.872454e-004 
1.895917e-004 
1.917836e-004 
1.937174e-004 
1.954220e-004 
1.969877e-004 
1.983826e-004 
1.995427e-004 
2.005651e-004 
2.014850e-004 
2.022417e-004 
2.028317e-004 
2.033642e-004 
2.037990e-004 
2.040944e-004 
2.042889e-004 
2.044548e-004 
2.044953e-004 
2.044379e-004 
2.042981e-004 
2.040609e-004 
2.036240e-004 
2.031312e-004 
1.000000e+000 
1.000000e+000 
1.162759e-004 
1.160312e-004 
1.159467e-004 
1.159474e-004 
1.160109e-004 
1.161999e-004 
1.164814e-004 
1.168148e-004 
1.172198e-004 
1.177305e-004 
1.182767e-004 
1.188469e-004 
1.194969e-004 
1.202150e-004 
1.209269e-004 
1.216736e-004 
1.225090e-004 
1.233736e-004 
1.242283e-004 
1.251608e-004 
1.261825e-004 
1.272073e-004 
1.282612e-004 
1.294406e-004 
1.306901e-004 
1.319407e-004 
1.332853e-004 
1.347766e-004 
1.363028e-004 
1.378588e-004 
1.395711e-004 
1.414062e-004 
1.432418e-004 
1.451608e-004 
1.472613e-004 
1.494146e-004 
1.515527e-004 
1.538273e-004 
1.562386e-004 
1.586032e-004 
1.609613e-004 
1.634648e-004 
1.659778e-004 
1.683469e-004 
1.707282e-004 
1.731772e-004 
1.754511e-004 
1.775240e-004 
1.796025e-004 
1.815727e-004 
1.831947e-004 
1.846170e-004 
1.859721e-004 
1.869923e-004 
1.875863e-004 
1.880184e-004 
1.882338e-004 
1.879425e-004 
1.872875e-004 
1.864915e-004 
1.853088e-004 
1.836146e-004 
1.817255e-004 
1.796660e-004 
1.771466e-004 
1.743170e-004 
1.714716e-004 
1.684157e-004 
1.650296e-004 
1.616578e-004 
1.583814e-004 
1.549452e-004 
1.515043e-004 
1.483663e-004 
1.453765e-004 
1.424339e-004 
1.398552e-004 
1.377149e-004 
1.357888e-004 
1.342028e-004 
1.331949e-004 
1.326100e-004 
1.323449e-004 
1.326196e-004 
1.334428e-004 
1.345999e-004 
1.361478e-004 
1.382087e-004 
1.406122e-004 
1.432403e-004 
1.462026e-004 
1.494532e-004 
1.528001e-004 
1.562487e-004 
1.598493e-004 
1.634595e-004 
1.669801e-004 
1.704747e-004 
1.739087e-004 
1.771545e-004 
1.802206e-004 
1.831583e-004 
1.858908e-004 
1.883692e-004 
1.906582e-004 
1.927673e-004 
1.946319e-004 
1.962785e-004 
1.977682e-004 
1.990781e-004 
2.001837e-004 
2.011463e-004 
2.019911e-004 
2.026885e-004 
2.032488e-004 
2.037282e-004 
2.041140e-004 
2.043879e-004 
2.045741e-004 
2.047072e-004 
2.047352e-004 
2.046546e-004 
2.044906e-004 
2.042624e-004 
2.038939e-004 
2.033309e-004 
1.000000e+000 
1.000000e+000 
1.158290e-004 
1.156096e-004 
1.154926e-004 
1.155250e-004 
1.156210e-004 
1.158038e-004 
1.161101e-004 
1.164838e-004 
1.168811e-004 
1.173736e-004 
1.179492e-004 
1.185307e-004 
1.191410e-004 
1.198462e-004 
1.205770e-004 
1.212941e-004 
1.220794e-004 
1.229445e-004 
1.237966e-004 
1.246743e-004 
1.256638e-004 
1.267026e-004 
1.277346e-004 
1.288661e-004 
1.301219e-004 
1.313977e-004 
1.327209e-004 
1.342052e-004 
1.357853e-004 
1.373835e-004 
1.391052e-004 
1.409988e-004 
1.429401e-004 
1.449337e-004 
1.471020e-004 
1.493911e-004 
1.516892e-004 
1.540834e-004 
1.566338e-004 
1.592114e-004 
1.617775e-004 
1.644422e-004 
1.671632e-004 
1.698085e-004 
1.724185e-004 
1.750522e-004 
1.775930e-004 
1.799701e-004 
1.822528e-004 
1.844178e-004 
1.863479e-004 
1.880421e-004 
1.895391e-004 
1.907706e-004 
1.916753e-004 
1.922775e-004 
1.925752e-004 
1.925232e-004 
1.921087e-004 
1.913421e-004 
1.902309e-004 
1.887791e-004 
1.869742e-004 
1.848344e-004 
1.824252e-004 
1.797548e-004 
1.767982e-004 
1.736449e-004 
1.703901e-004 
1.669893e-004 
1.634676e-004 
1.599981e-004 
1.566082e-004 
1.532249e-004 
1.499935e-004 
1.470696e-004 
1.443571e-004 
1.418614e-004 
1.398060e-004 
1.381902e-004 
1.368725e-004 
1.359980e-004 
1.357061e-004 
1.358211e-004 
1.363003e-004 
1.373381e-004 
1.388629e-004 
1.406668e-004 
1.428512e-004 
1.454928e-004 
1.483599e-004 
1.513721e-004 
1.546728e-004 
1.581518e-004 
1.615943e-004 
1.650746e-004 
1.686465e-004 
1.721024e-004 
1.753765e-004 
1.786012e-004 
1.817045e-004 
1.845252e-004 
1.871468e-004 
1.896493e-004 
1.918981e-004 
1.938590e-004 
1.956733e-004 
1.973250e-004 
1.987051e-004 
1.998936e-004 
2.009919e-004 
2.019152e-004 
2.026336e-004 
2.032712e-004 
2.038417e-004 
2.042508e-004 
2.045481e-004 
2.048274e-004 
2.050184e-004 
2.050721e-004 
2.050765e-004 
2.050509e-004 
2.048786e-004 
2.045558e-004 
2.041272e-004 
2.036322e-004 
1.000000e+000 
1.000000e+000 
1.151841e-004 
1.150207e-004 
1.149471e-004 
1.149901e-004 
1.151452e-004 
1.153658e-004 
1.156396e-004 
1.160349e-004 
1.165012e-004 
1.169758e-004 
1.175089e-004 
1.181424e-004 
1.187789e-004 
1.194096e-004 
1.201274e-004 
1.209068e-004 
1.216486e-004 
1.224284e-004 
1.233243e-004 
1.242374e-004 
1.251287e-004 
1.261380e-004 
1.272643e-004 
1.283776e-004 
1.295422e-004 
1.308936e-004 
1.323249e-004 
1.337509e-004 
1.353310e-004 
1.371133e-004 
1.389192e-004 
1.407776e-004 
1.428741e-004 
1.451156e-004 
1.473387e-004 
1.497031e-004 
1.523142e-004 
1.549526e-004 
1.575691e-004 
1.603924e-004 
1.633581e-004 
1.662136e-004 
1.690780e-004 
1.721252e-004 
1.751092e-004 
1.778813e-004 
1.806899e-004 
1.835289e-004 
1.860696e-004 
1.883713e-004 
1.906778e-004 
1.927610e-004 
1.943858e-004 
1.958098e-004 
1.971092e-004 
1.979328e-004 
1.982900e-004 
1.984903e-004 
1.983666e-004 
1.976506e-004 
1.966056e-004 
1.953919e-004 
1.936939e-004 
1.915072e-004 
1.891827e-004 
1.866297e-004 
1.836075e-004 
1.803823e-004 
1.771629e-004 
1.737041e-004 
1.700205e-004 
1.664575e-004 
1.629766e-004 
1.593990e-004 
1.559713e-004 
1.528837e-004 
1.499546e-004 
1.472146e-004 
1.449333e-004 
1.430696e-004 
1.414933e-004 
1.403780e-004 
1.398233e-004 
1.396738e-004 
1.399350e-004 
1.407411e-004 
1.420086e-004 
1.436208e-004 
1.456432e-004 
1.480700e-004 
1.507588e-004 
1.536749e-004 
1.568406e-004 
1.601566e-004 
1.635278e-004 
1.669570e-004 
1.704044e-004 
1.737743e-004 
1.770395e-004 
1.801987e-004 
1.831961e-004 
1.859914e-004 
1.885963e-004 
1.910004e-004 
1.931740e-004 
1.951268e-004 
1.968777e-004 
1.984196e-004 
1.997578e-004 
2.009201e-004 
2.019178e-004 
2.027569e-004 
2.034588e-004 
2.040437e-004 
2.045166e-004 
2.048928e-004 
2.051838e-004 
2.053984e-004 
2.055369e-004 
2.056086e-004 
2.056005e-004 
2.055110e-004 
2.053256e-004 
2.050700e-004 
2.046950e-004 
2.041348e-004 
1.000000e+000 
1.000000e+000 
1.144592e-004 
1.143658e-004 
1.143316e-004 
1.143753e-004 
1.145430e-004 
1.148284e-004 
1.151406e-004 
1.155189e-004 
1.159992e-004 
1.165264e-004 
1.170552e-004 
1.176559e-004 
1.183201e-004 
1.189782e-004 
1.196517e-004 
1.204074e-004 
1.211889e-004 
1.219621e-004 
1.228015e-004 
1.237275e-004 
1.246653e-004 
1.256455e-004 
1.267465e-004 
1.279282e-004 
1.291443e-004 
1.304774e-004 
1.319591e-004 
1.335163e-004 
1.351617e-004 
1.369832e-004 
1.389481e-004 
1.409966e-004 
1.431908e-004 
1.455753e-004 
1.480749e-004 
1.506720e-004 
1.534357e-004 
1.563491e-004 
1.593328e-004 
1.624024e-004 
1.655954e-004 
1.688517e-004 
1.721086e-004 
1.753871e-004 
1.786870e-004 
1.819338e-004 
1.850758e-004 
1.881268e-004 
1.910711e-004 
1.938268e-004 
1.963451e-004 
1.986534e-004 
2.007321e-004 
2.024788e-004 
2.038713e-004 
2.049772e-004 
2.057462e-004 
2.060634e-004 
2.059886e-004 
2.056089e-004 
2.048052e-004 
2.035174e-004 
2.019155e-004 
2.000237e-004 
1.976770e-004 
1.949669e-004 
1.921038e-004 
1.889768e-004 
1.854941e-004 
1.819188e-004 
1.783505e-004 
1.745877e-004 
1.707446e-004 
1.671209e-004 
1.636045e-004 
1.600756e-004 
1.568451e-004 
1.540329e-004 
1.513963e-004 
1.490439e-004 
1.472790e-004 
1.459459e-004 
1.448878e-004 
1.443862e-004 
1.445012e-004 
1.449411e-004 
1.457703e-004 
1.472106e-004 
1.490459e-004 
1.510878e-004 
1.535381e-004 
1.563817e-004 
1.593176e-004 
1.623695e-004 
1.656826e-004 
1.690425e-004 
1.722790e-004 
1.755455e-004 
1.788238e-004 
1.818777e-004 
1.847342e-004 
1.875291e-004 
1.901212e-004 
1.923981e-004 
1.945058e-004 
1.964758e-004 
1.981544e-004 
1.995819e-004 
2.009011e-004 
2.020459e-004 
2.029355e-004 
2.037004e-004 
2.043993e-004 
2.049290e-004 
2.053034e-004 
2.056549e-004 
2.059435e-004 
2.060917e-004 
2.061753e-004 
2.062619e-004 
2.062461e-004 
2.061207e-004 
2.059504e-004 
2.057005e-004 
2.052498e-004 
2.047193e-004 
1.000000e+000 
1.000000e+000 
1.136295e-004 
1.135233e-004 
1.135738e-004 
1.137186e-004 
1.138870e-004 
1.141650e-004 
1.145551e-004 
1.149717e-004 
1.154123e-004 
1.159681e-004 
1.165662e-004 
1.171352e-004 
1.177608e-004 
1.184847e-004 
1.191797e-004 
1.198605e-004 
1.206547e-004 
1.215076e-004 
1.223079e-004 
1.231809e-004 
1.242091e-004 
1.252495e-004 
1.262884e-004 
1.275133e-004 
1.288862e-004 
1.302495e-004 
1.317273e-004 
1.334673e-004 
1.353004e-004 
1.371583e-004 
1.392641e-004 
1.416234e-004 
1.440080e-004 
1.465090e-004 
1.493346e-004 
1.523092e-004 
1.552694e-004 
1.584474e-004 
1.619028e-004 
1.653408e-004 
1.687706e-004 
1.724513e-004 
1.762215e-004 
1.798135e-004 
1.834282e-004 
1.871944e-004 
1.907790e-004 
1.940962e-004 
1.974366e-004 
2.006928e-004 
2.035261e-004 
2.060936e-004 
2.085964e-004 
2.107223e-004 
2.123210e-004 
2.136989e-004 
2.148275e-004 
2.153665e-004 
2.154412e-004 
2.153068e-004 
2.147206e-004 
2.135282e-004 
2.120346e-004 
2.102823e-004 
2.079950e-004 
2.052940e-004 
2.024482e-004 
1.993015e-004 
1.957545e-004 
1.920895e-004 
1.883820e-004 
1.844573e-004 
1.804479e-004 
1.765808e-004 
1.727709e-004 
1.689937e-004 
1.654697e-004 
1.622506e-004 
1.592530e-004 
1.565921e-004 
1.543888e-004 
1.525845e-004 
1.511914e-004 
1.503097e-004 
1.499170e-004 
1.499701e-004 
1.505109e-004 
1.515215e-004 
1.529344e-004 
1.547451e-004 
1.569234e-004 
1.593822e-004 
1.620899e-004 
1.650187e-004 
1.680713e-004 
1.711914e-004 
1.743715e-004 
1.775353e-004 
1.806028e-004 
1.835799e-004 
1.864433e-004 
1.891120e-004 
1.915780e-004 
1.938747e-004 
1.959563e-004 
1.977895e-004 
1.994256e-004 
2.008816e-004 
2.021126e-004 
2.031479e-004 
2.040478e-004 
2.047966e-004 
2.053767e-004 
2.058554e-004 
2.062553e-004 
2.065434e-004 
2.067376e-004 
2.068981e-004 
2.069949e-004 
2.070077e-004 
2.069647e-004 
2.068804e-004 
2.066927e-004 
2.064277e-004 
2.060952e-004 
2.055992e-004 
1.000000e+000 
1.000000e+000 
1.127102e-004 
1.126876e-004 
1.127297e-004 
1.129165e-004 
1.131704e-004 
1.134662e-004 
1.138525e-004 
1.143326e-004 
1.148191e-004 
1.153415e-004 
1.159482e-004 
1.165892e-004 
1.172098e-004 
1.178840e-004 
1.186273e-004 
1.193674e-004 
1.201128e-004 
1.209512e-004 
1.218492e-004 
1.227535e-004 
1.237332e-004 
1.248465e-004 
1.260239e-004 
1.272626e-004 
1.286585e-004 
1.302138e-004 
1.318555e-004 
1.336365e-004 
1.356367e-004 
1.378034e-004 
1.400903e-004 
1.425857e-004 
1.453216e-004 
1.482081e-004 
1.512388e-004 
1.545074e-004 
1.579814e-004 
1.615542e-004 
1.652620e-004 
1.691756e-004 
1.731915e-004 
1.772121e-004 
1.813179e-004 
1.855270e-004 
1.896710e-004 
1.937024e-004 
1.977378e-004 
2.017064e-004 
2.054105e-004 
2.089034e-004 
2.122955e-004 
2.154011e-004 
2.180761e-004 
2.204946e-004 
2.226761e-004 
2.243526e-004 
2.255402e-004 
2.264717e-004 
2.269979e-004 
2.268918e-004 
2.263817e-004 
2.256118e-004 
2.242847e-004 
2.223838e-004 
2.202608e-004 
2.178326e-004 
2.148224e-004 
2.115034e-004 
2.081320e-004 
2.044130e-004 
2.003169e-004 
1.962775e-004 
1.922640e-004 
1.879853e-004 
1.837419e-004 
1.798383e-004 
1.759847e-004 
1.721525e-004 
1.687830e-004 
1.658390e-004 
1.630291e-004 
1.606335e-004 
1.589041e-004 
1.575331e-004 
1.564777e-004 
1.560883e-004 
1.562601e-004 
1.566993e-004 
1.576068e-004 
1.591135e-004 
1.608988e-004 
1.628923e-004 
1.653171e-004 
1.680206e-004 
1.707381e-004 
1.735950e-004 
1.766501e-004 
1.796349e-004 
1.824889e-004 
1.853722e-004 
1.881732e-004 
1.907053e-004 
1.930756e-004 
1.953559e-004 
1.973777e-004 
1.991170e-004 
2.007254e-004 
2.021675e-004 
2.033275e-004 
2.043054e-004 
2.051963e-004 
2.059076e-004 
2.064202e-004 
2.068687e-004 
2.072562e-004 
2.074963e-004 
2.076461e-004 
2.077999e-004 
2.078845e-004 
2.078595e-004 
2.078081e-004 
2.077522e-004 
2.075801e-004 
2.072848e-004 
2.069257e-004 
2.065197e-004 
1.000000e+000 
1.000000e+000 
1.116233e-004 
1.117077e-004 
1.118361e-004 
1.120308e-004 
1.123456e-004 
1.127251e-004 
1.131034e-004 
1.135804e-004 
1.141491e-004 
1.147012e-004 
1.152633e-004 
1.159404e-004 
1.166355e-004 
1.172816e-004 
1.180023e-004 
1.188286e-004 
1.196143e-004 
1.204092e-004 
1.213622e-004 
1.223860e-004 
1.233778e-004 
1.245087e-004 
1.258466e-004 
1.272187e-004 
1.286531e-004 
1.303618e-004 
1.322616e-004 
1.341968e-004 
1.363453e-004 
1.388339e-004 
1.414475e-004 
1.441586e-004 
1.472166e-004 
1.505650e-004 
1.539638e-004 
1.575585e-004 
1.615268e-004 
1.656277e-004 
1.697336e-004 
1.741005e-004 
1.787105e-004 
1.832488e-004 
1.877836e-004 
1.925361e-004 
1.972714e-004 
2.017692e-004 
2.062592e-004 
2.107831e-004 
2.150009e-004 
2.189072e-004 
2.227478e-004 
2.263430e-004 
2.294340e-004 
2.322149e-004 
2.347847e-004 
2.368477e-004 
2.383642e-004 
2.395791e-004 
2.403883e-004 
2.405705e-004 
2.402903e-004 
2.396740e-004 
2.385194e-004 
2.368093e-004 
2.347581e-004 
2.323279e-004 
2.293979e-004 
2.261169e-004 
2.225966e-004 
2.187489e-004 
2.146216e-004 
2.103704e-004 
2.059977e-004 
2.015098e-004 
1.970355e-004 
1.926305e-004 
1.883097e-004 
1.841775e-004 
1.802938e-004 
1.766658e-004 
1.733933e-004 
1.705392e-004 
1.680656e-004 
1.660389e-004 
1.645524e-004 
1.635300e-004 
1.629467e-004 
1.629136e-004 
1.633790e-004 
1.642061e-004 
1.654579e-004 
1.671592e-004 
1.691257e-004 
1.713042e-004 
1.737792e-004 
1.764264e-004 
1.790817e-004 
1.818079e-004 
1.846069e-004 
1.872932e-004 
1.898365e-004 
1.923330e-004 
1.946876e-004 
1.967822e-004 
1.987077e-004 
2.005058e-004 
2.020522e-004 
2.033531e-004 
2.045311e-004 
2.055493e-004 
2.063290e-004 
2.069713e-004 
2.075459e-004 
2.079694e-004 
2.082444e-004 
2.084918e-004 
2.086919e-004 
2.087706e-004 
2.087969e-004 
2.088388e-004 
2.088030e-004 
2.086629e-004 
2.085072e-004 
2.083328e-004 
2.080249e-004 
2.075733e-004 
1.000000e+000 
1.000000e+000 
1.104997e-004 
1.106454e-004 
1.108648e-004 
1.111196e-004 
1.114327e-004 
1.118655e-004 
1.123353e-004 
1.128091e-004 
1.133555e-004 
1.139889e-004 