# vtk DataFile Version 2.0
2D-ADE data file 
ASCII
DATASET RECTILINEAR_GRID
DIMENSIONS 128 128 1
X_COORDINATES 128 int
0 1 2 3 4 5 6 7 8 9 10 11 12 13 14 15 16 17 18 19 20 21 22 23 24 25 26 27 28 29 30 31 32 33 34 35 36 37 38 39 40 41 42 43 44 45 46 47 48 49 50 51 52 53 54 55 56 57 58 59 60 61 62 63 64 65 66 67 68 69 70 71 72 73 74 75 76 77 78 79 80 81 82 83 84 85 86 87 88 89 90 91 92 93 94 95 96 97 98 99 100 101 102 103 104 105 106 107 108 109 110 111 112 113 114 115 116 117 118 119 120 121 122 123 124 125 126 127 
Y_COORDINATES 128 int
0 1 2 3 4 5 6 7 8 9 10 11 12 13 14 15 16 17 18 19 20 21 22 23 24 25 26 27 28 29 30 31 32 33 34 35 36 37 38 39 40 41 42 43 44 45 46 47 48 49 50 51 52 53 54 55 56 57 58 59 60 61 62 63 64 65 66 67 68 69 70 71 72 73 74 75 76 77 78 79 80 81 82 83 84 85 86 87 88 89 90 91 92 93 94 95 96 97 98 99 100 101 102 103 104 105 106 107 108 109 110 111 112 113 114 115 116 117 118 119 120 121 122 123 124 125 126 127 
Z_COORDINATES 1 int
0
POINT_DATA 16384 
SCALARS density double 1
LOOKUP_TABLE default
1.000000e+000 
1.000000e+000 
1.000000e+000 
1.000000e+000 
1.000000e+000 
1.000000e+000 
1.000000e+000 
1.000000e+000 
1.000000e+000 
1.000000e+000 
1.000000e+000 
1.000000e+000 
1.000000e+000 
1.000000e+000 
1.000000e+000 
1.000000e+000 
1.000000e+000 
1.000000e+000 
1.000000e+000 
1.000000e+000 
1.000000e+000 
1.000000e+000 
1.000000e+000 
1.000000e+000 
1.000000e+000 
1.000000e+000 
1.000000e+000 
1.000000e+000 
1.000000e+000 
1.000000e+000 
1.000000e+000 
1.000000e+000 
1.000000e+000 
1.000000e+000 
1.000000e+000 
1.000000e+000 
1.000000e+000 
1.000000e+000 
1.000000e+000 
1.000000e+000 
1.000000e+000 
1.000000e+000 
1.000000e+000 
1.000000e+000 
1.000000e+000 
1.000000e+000 
1.000000e+000 
1.000000e+000 
1.000000e+000 
1.000000e+000 
1.000000e+000 
1.000000e+000 
1.000000e+000 
1.000000e+000 
1.000000e+000 
1.000000e+000 
1.000000e+000 
1.000000e+000 
1.000000e+000 
1.000000e+000 
1.000000e+000 
1.000000e+000 
1.000000e+000 
1.000000e+000 
1.000000e+000 
1.000000e+000 
1.000000e+000 
1.000000e+000 
1.000000e+000 
1.000000e+000 
1.000000e+000 
1.000000e+000 
1.000000e+000 
1.000000e+000 
1.000000e+000 
1.000000e+000 
1.000000e+000 
1.000000e+000 
1.000000e+000 
1.000000e+000 
1.000000e+000 
1.000000e+000 
1.000000e+000 
1.000000e+000 
1.000000e+000 
1.000000e+000 
1.000000e+000 
1.000000e+000 
1.000000e+000 
1.000000e+000 
1.000000e+000 
1.000000e+000 
1.000000e+000 
1.000000e+000 
1.000000e+000 
1.000000e+000 
1.000000e+000 
1.000000e+000 
1.000000e+000 
1.000000e+000 
1.000000e+000 
1.000000e+000 
1.000000e+000 
1.000000e+000 
1.000000e+000 
1.000000e+000 
1.000000e+000 
1.000000e+000 
1.000000e+000 
1.000000e+000 
1.000000e+000 
1.000000e+000 
1.000000e+000 
1.000000e+000 
1.000000e+000 
1.000000e+000 
1.000000e+000 
1.000000e+000 
1.000000e+000 
1.000000e+000 
1.000000e+000 
1.000000e+000 
1.000000e+000 
1.000000e+000 
1.000000e+000 
1.000000e+000 
1.000000e+000 
1.000000e+000 
1.000000e+000 
1.248563e-004 
1.247813e-004 
1.246927e-004 
1.246603e-004 
1.246542e-004 
1.247993e-004 
1.250213e-004 
1.253213e-004 
1.256683e-004 
1.261448e-004 
1.266685e-004 
1.272239e-004 
1.278481e-004 
1.285618e-004 
1.292836e-004 
1.300284e-004 
1.308653e-004 
1.317453e-004 
1.326165e-004 
1.335402e-004 
1.345629e-004 
1.355837e-004 
1.366140e-004 
1.377387e-004 
1.389377e-004 
1.401059e-004 
1.413326e-004 
1.426719e-004 
1.440321e-004 
1.453649e-004 
1.468096e-004 
1.483357e-004 
1.498233e-004 
1.513212e-004 
1.529507e-004 
1.545792e-004 
1.561345e-004 
1.577498e-004 
1.594493e-004 
1.610418e-004 
1.625684e-004 
1.641729e-004 
1.657411e-004 
1.671186e-004 
1.684662e-004 
1.698350e-004 
1.710094e-004 
1.719705e-004 
1.729230e-004 
1.737559e-004 
1.742690e-004 
1.746110e-004 
1.749021e-004 
1.748986e-004 
1.745508e-004 
1.740970e-004 
1.734769e-004 
1.724504e-004 
1.711732e-004 
1.698200e-004 
1.681728e-004 
1.661571e-004 
1.640502e-004 
1.618429e-004 
1.593091e-004 
1.566022e-004 
1.539447e-004 
1.511615e-004 
1.481881e-004 
1.453052e-004 
1.425485e-004 
1.397270e-004 
1.369848e-004 
1.345417e-004 
1.322658e-004 
1.301013e-004 
1.282849e-004 
1.268546e-004 
1.256480e-004 
1.247662e-004 
1.243674e-004 
1.243374e-004 
1.246024e-004 
1.253143e-004 
1.264699e-004 
1.279227e-004 
1.296975e-004 
1.318794e-004 
1.343459e-004 
1.370132e-004 
1.399361e-004 
1.430974e-004 
1.463513e-004 
1.496958e-004 
1.531506e-004 
1.566391e-004 
1.600617e-004 
1.634680e-004 
1.668208e-004 
1.700520e-004 
1.731225e-004 
1.760950e-004 
1.788911e-004 
1.814983e-004 
1.839099e-004 
1.861822e-004 
1.882215e-004 
1.900827e-004 
1.917494e-004 
1.932767e-004 
1.945687e-004 
1.957357e-004 
1.967176e-004 
1.975879e-004 
1.982420e-004 
1.988280e-004 
1.992280e-004 
1.995514e-004 
1.996704e-004 
1.997627e-004 
1.996692e-004 
1.995376e-004 
1.992355e-004 
1.989707e-004 
1.987273e-004 
1.986144e-004 
1.000000e+000 
1.000000e+000 
1.249183e-004 
1.248417e-004 
1.247665e-004 
1.248095e-004 
1.248146e-004 
1.249601e-004 
1.251537e-004 
1.254773e-004 
1.257969e-004 
1.262389e-004 
1.267385e-004 
1.272917e-004 
1.278703e-004 
1.285438e-004 
1.292559e-004 
1.299788e-004 
1.307645e-004 
1.316148e-004 
1.324823e-004 
1.333646e-004 
1.343393e-004 
1.353430e-004 
1.363614e-004 
1.374270e-004 
1.385873e-004 
1.397442e-004 
1.409389e-004 
1.422080e-004 
1.435426e-004 
1.448596e-004 
1.462473e-004 
1.477039e-004 
1.491809e-004 
1.506483e-004 
1.522000e-004 
1.537766e-004 
1.553346e-004 
1.568963e-004 
1.585131e-004 
1.600901e-004 
1.616237e-004 
1.631499e-004 
1.646607e-004 
1.660704e-004 
1.674114e-004 
1.686931e-004 
1.698734e-004 
1.709041e-004 
1.718201e-004 
1.725989e-004 
1.732056e-004 
1.736182e-004 
1.738510e-004 
1.738829e-004 
1.736991e-004 
1.732747e-004 
1.726238e-004 
1.717552e-004 
1.706478e-004 
1.692759e-004 
1.676967e-004 
1.659297e-004 
1.639238e-004 
1.617027e-004 
1.593722e-004 
1.569065e-004 
1.542589e-004 
1.515490e-004 
1.488628e-004 
1.461104e-004 
1.433306e-004 
1.407032e-004 
1.382062e-004 
1.357556e-004 
1.335126e-004 
1.315949e-004 
1.298692e-004 
1.283619e-004 
1.272736e-004 
1.265600e-004 
1.260841e-004 
1.260024e-004 
1.264035e-004 
1.271141e-004 
1.281090e-004 
1.295688e-004 
1.313927e-004 
1.334196e-004 
1.357424e-004 
1.384319e-004 
1.412657e-004 
1.442146e-004 
1.473859e-004 
1.507047e-004 
1.539684e-004 
1.572859e-004 
1.606683e-004 
1.639778e-004 
1.671234e-004 
1.702704e-004 
1.733009e-004 
1.761365e-004 
1.787835e-004 
1.813813e-004 
1.837269e-004 
1.858781e-004 
1.878519e-004 
1.897390e-004 
1.913164e-004 
1.927828e-004 
1.940718e-004 
1.952664e-004 
1.961568e-004 
1.970413e-004 
1.977158e-004 
1.983237e-004 
1.986553e-004 
1.990628e-004 
1.992044e-004 
1.993345e-004 
1.992260e-004 
1.992375e-004 
1.989802e-004 
1.987935e-004 
1.986184e-004 
1.985386e-004 
1.000000e+000 
1.000000e+000 
1.249936e-004 
1.249298e-004 
1.248471e-004 
1.248306e-004 
1.249160e-004 
1.250610e-004 
1.252333e-004 
1.255202e-004 
1.258894e-004 
1.262857e-004 
1.267324e-004 
1.272912e-004 
1.278808e-004 
1.284746e-004 
1.291507e-004 
1.299075e-004 
1.306485e-004 
1.314153e-004 
1.322902e-004 
1.331934e-004 
1.340698e-004 
1.350256e-004 
1.360824e-004 
1.371144e-004 
1.381563e-004 
1.393250e-004 
1.405446e-004 
1.417147e-004 
1.429632e-004 
1.443390e-004 
1.456913e-004 
1.470176e-004 
1.484807e-004 
1.500063e-004 
1.514488e-004 
1.529274e-004 
1.545425e-004 
1.561084e-004 
1.575803e-004 
1.591461e-004 
1.607621e-004 
1.622193e-004 
1.636227e-004 
1.651156e-004 
1.665051e-004 
1.676809e-004 
1.688545e-004 
1.700171e-004 
1.709199e-004 
1.716296e-004 
1.723399e-004 
1.728669e-004 
1.730534e-004 
1.731137e-004 
1.730931e-004 
1.727299e-004 
1.720640e-004 
1.713231e-004 
1.703676e-004 
1.690242e-004 
1.675069e-004 
1.659104e-004 
1.640094e-004 
1.618335e-004 
1.596282e-004 
1.573110e-004 
1.547386e-004 
1.521127e-004 
1.495575e-004 
1.469101e-004 
1.442069e-004 
1.416715e-004 
1.392678e-004 
1.368986e-004 
1.347279e-004 
1.328636e-004 
1.311980e-004 
1.297587e-004 
1.286982e-004 
1.279908e-004 
1.275639e-004 
1.275080e-004 
1.278710e-004 
1.285704e-004 
1.295951e-004 
1.310036e-004 
1.327511e-004 
1.347698e-004 
1.370668e-004 
1.396358e-004 
1.424019e-004 
1.453276e-004 
1.484007e-004 
1.515805e-004 
1.548046e-004 
1.580531e-004 
1.612959e-004 
1.644975e-004 
1.676169e-004 
1.706446e-004 
1.735515e-004 
1.763250e-004 
1.789378e-004 
1.813950e-004 
1.836776e-004 
1.857939e-004 
1.877221e-004 
1.894864e-004 
1.910725e-004 
1.925010e-004 
1.937510e-004 
1.948649e-004 
1.958193e-004 
1.966428e-004 
1.973138e-004 
1.978852e-004 
1.983136e-004 
1.986390e-004 
1.988415e-004 
1.989701e-004 
1.989731e-004 
1.989100e-004 
1.987938e-004 
1.986252e-004 
1.984285e-004 
1.982741e-004 
1.000000e+000 
1.000000e+000 
1.250293e-004 
1.248879e-004 
1.248526e-004 
1.248410e-004 
1.249125e-004 
1.250518e-004 
1.252614e-004 
1.255150e-004 
1.258663e-004 
1.262723e-004 
1.267169e-004 
1.272196e-004 
1.277963e-004 
1.284015e-004 
1.290359e-004 
1.297369e-004 
1.304820e-004 
1.312438e-004 
1.320464e-004 
1.329156e-004 
1.338064e-004 
1.347235e-004 
1.356983e-004 
1.367298e-004 
1.377749e-004 
1.388673e-004 
1.400241e-004 
1.412220e-004 
1.424385e-004 
1.437181e-004 
1.450525e-004 
1.464124e-004 
1.477976e-004 
1.492441e-004 
1.507225e-004 
1.522092e-004 
1.537160e-004 
1.552627e-004 
1.568076e-004 
1.583324e-004 
1.598547e-004 
1.613790e-004 
1.628513e-004 
1.642591e-004 
1.656289e-004 
1.669453e-004 
1.681381e-004 
1.692159e-004 
1.702150e-004 
1.710811e-004 
1.717437e-004 
1.722578e-004 
1.726445e-004 
1.728005e-004 
1.727028e-004 
1.724547e-004 
1.720148e-004 
1.712661e-004 
1.702868e-004 
1.691748e-004 
1.678033e-004 
1.661292e-004 
1.643284e-004 
1.624064e-004 
1.602067e-004 
1.578393e-004 
1.554823e-004 
1.530093e-004 
1.503590e-004 
1.477734e-004 
1.452990e-004 
1.427554e-004 
1.402682e-004 
1.380651e-004 
1.360136e-004 
1.340334e-004 
1.323843e-004 
1.311152e-004 
1.300201e-004 
1.292053e-004 
1.288838e-004 
1.288961e-004 
1.291328e-004 
1.298090e-004 
1.309381e-004 
1.322864e-004 
1.339165e-004 
1.359786e-004 
1.382970e-004 
1.407328e-004 
1.434445e-004 
1.464081e-004 
1.494050e-004 
1.524535e-004 
1.556724e-004 
1.588965e-004 
1.620102e-004 
1.651243e-004 
1.682431e-004 
1.711788e-004 
1.739645e-004 
1.766934e-004 
1.792791e-004 
1.816122e-004 
1.838219e-004 
1.859127e-004 
1.877881e-004 
1.894408e-004 
1.910105e-004 
1.924101e-004 
1.936058e-004 
1.946478e-004 
1.956295e-004 
1.964134e-004 
1.970579e-004 
1.976015e-004 
1.980865e-004 
1.983691e-004 
1.985915e-004 
1.987309e-004 
1.988085e-004 
1.987005e-004 
1.986138e-004 
1.984758e-004 
1.982842e-004 
1.979832e-004 
1.000000e+000 
1.000000e+000 
1.250364e-004 
1.248638e-004 
1.247736e-004 
1.247906e-004 
1.248467e-004 
1.249754e-004 
1.252132e-004 
1.254794e-004 
1.257807e-004 
1.261837e-004 
1.266567e-004 
1.271228e-004 
1.276468e-004 
1.282717e-004 
1.289037e-004 
1.295309e-004 
1.302527e-004 
1.310403e-004 
1.317918e-004 
1.325859e-004 
1.334931e-004 
1.344083e-004 
1.352932e-004 
1.362865e-004 
1.373669e-004 
1.384057e-004 
1.394719e-004 
1.406848e-004 
1.419163e-004 
1.430997e-004 
1.443887e-004 
1.457987e-004 
1.471507e-004 
1.485021e-004 
1.500049e-004 
1.515371e-004 
1.529714e-004 
1.544782e-004 
1.561030e-004 
1.576385e-004 
1.590942e-004 
1.606624e-004 
1.622289e-004 
1.636169e-004 
1.649787e-004 
1.664064e-004 
1.676712e-004 
1.687363e-004 
1.698071e-004 
1.708048e-004 
1.715132e-004 
1.720606e-004 
1.725725e-004 
1.728395e-004 
1.727868e-004 
1.726226e-004 
1.723112e-004 
1.716474e-004 
1.707334e-004 
1.697200e-004 
1.684496e-004 
1.668533e-004 
1.651241e-004 
1.632751e-004 
1.611576e-004 
1.588652e-004 
1.565468e-004 
1.541191e-004 
1.515520e-004 
1.490064e-004 
1.465222e-004 
1.440302e-004 
1.416128e-004 
1.393804e-004 
1.373085e-004 
1.354044e-004 
1.337639e-004 
1.324142e-004 
1.313429e-004 
1.305918e-004 
1.301946e-004 
1.301454e-004 
1.304538e-004 
1.311215e-004 
1.321348e-004 
1.334942e-004 
1.351822e-004 
1.371501e-004 
1.393889e-004 
1.418869e-004 
1.445771e-004 
1.474119e-004 
1.504004e-004 
1.534886e-004 
1.565996e-004 
1.597272e-004 
1.628712e-004 
1.659472e-004 
1.689233e-004 
1.718229e-004 
1.746179e-004 
1.772362e-004 
1.797074e-004 
1.820465e-004 
1.842096e-004 
1.861695e-004 
1.879915e-004 
1.896552e-004 
1.911317e-004 
1.924378e-004 
1.936352e-004 
1.946679e-004 
1.955483e-004 
1.963082e-004 
1.969813e-004 
1.974954e-004 
1.979122e-004 
1.982424e-004 
1.984902e-004 
1.985929e-004 
1.986520e-004 
1.986416e-004 
1.985470e-004 
1.983372e-004 
1.980402e-004 
1.977253e-004 
1.000000e+000 
1.000000e+000 
1.248767e-004 
1.247095e-004 
1.246285e-004 
1.246534e-004 
1.247309e-004 
1.248634e-004 
1.250614e-004 
1.253525e-004 
1.256826e-004 
1.260495e-004 
1.264876e-004 
1.269896e-004 
1.275054e-004 
1.280613e-004 
1.286873e-004 
1.293447e-004 
1.300084e-004 
1.307285e-004 
1.315095e-004 
1.322992e-004 
1.331109e-004 
1.339974e-004 
1.349280e-004 
1.358612e-004 
1.368469e-004 
1.379147e-004 
1.390050e-004 
1.401094e-004 
1.412967e-004 
1.425531e-004 
1.438113e-004 
1.451076e-004 
1.465008e-004 
1.479277e-004 
1.493422e-004 
1.508205e-004 
1.523784e-004 
1.539154e-004 
1.554361e-004 
1.570314e-004 
1.586459e-004 
1.601769e-004 
1.616971e-004 
1.632647e-004 
1.647489e-004 
1.660993e-004 
1.674425e-004 
1.687485e-004 
1.698509e-004 
1.708037e-004 
1.717269e-004 
1.724748e-004 
1.729330e-004 
1.732648e-004 
1.734945e-004 
1.734044e-004 
1.730269e-004 
1.725592e-004 
1.718720e-004 
1.707992e-004 
1.695438e-004 
1.682052e-004 
1.665466e-004 
1.645877e-004 
1.626026e-004 
1.605014e-004 
1.580944e-004 
1.556174e-004 
1.532367e-004 
1.507211e-004 
1.480875e-004 
1.456529e-004 
1.433583e-004 
1.410093e-004 
1.388459e-004 
1.370505e-004 
1.353981e-004 
1.338932e-004 
1.328308e-004 
1.321443e-004 
1.316339e-004 
1.314951e-004 
1.318630e-004 
1.325071e-004 
1.333996e-004 
1.347565e-004 
1.364804e-004 
1.383679e-004 
1.405424e-004 
1.430752e-004 
1.457446e-004 
1.484974e-004 
1.514738e-004 
1.545754e-004 
1.576219e-004 
1.606928e-004 
1.638349e-004 
1.668779e-004 
1.697733e-004 
1.726359e-004 
1.754045e-004 
1.779538e-004 
1.803489e-004 
1.826550e-004 
1.847609e-004 
1.866433e-004 
1.884034e-004 
1.900314e-004 
1.914369e-004 
1.926826e-004 
1.938345e-004 
1.948361e-004 
1.956545e-004 
1.963852e-004 
1.970306e-004 
1.975323e-004 
1.979095e-004 
1.982430e-004 
1.984808e-004 
1.985991e-004 
1.986367e-004 
1.986340e-004 
1.984975e-004 
1.982994e-004 
1.980429e-004 
1.976381e-004 
1.000000e+000 
1.000000e+000 
1.246481e-004 
1.245375e-004 
1.244429e-004 
1.244230e-004 
1.245215e-004 
1.247002e-004 
1.248830e-004 
1.251520e-004 
1.255112e-004 
1.258872e-004 
1.262831e-004 
1.267805e-004 
1.273192e-004 
1.278408e-004 
1.284216e-004 
1.290924e-004 
1.297498e-004 
1.304072e-004 
1.311659e-004 
1.319714e-004 
1.327386e-004 
1.335654e-004 
1.345043e-004 
1.354333e-004 
1.363518e-004 
1.373934e-004 
1.385089e-004 
1.395805e-004 
1.407125e-004 
1.419883e-004 
1.432681e-004 
1.445202e-004 
1.459042e-004 
1.473862e-004 
1.488115e-004 
1.502696e-004 
1.518783e-004 
1.534877e-004 
1.550241e-004 
1.566530e-004 
1.583673e-004 
1.599791e-004 
1.615451e-004 
1.632036e-004 
1.648144e-004 
1.662592e-004 
1.676879e-004 
1.691202e-004 
1.703617e-004 
1.714266e-004 
1.724569e-004 
1.733414e-004 
1.739471e-004 
1.743919e-004 
1.747194e-004 
1.747691e-004 
1.745354e-004 
1.741439e-004 
1.735343e-004 
1.726075e-004 
1.714536e-004 
1.701284e-004 
1.685483e-004 
1.667228e-004 
1.647476e-004 
1.626178e-004 
1.603128e-004 
1.578997e-004 
1.554268e-004 
1.529022e-004 
1.503694e-004 
1.478732e-004 
1.454471e-004 
1.431498e-004 
1.410122e-004 
1.390444e-004 
1.373203e-004 
1.358927e-004 
1.347281e-004 
1.338610e-004 
1.333839e-004 
1.332611e-004 
1.334391e-004 
1.340065e-004 
1.349818e-004 
1.362461e-004 
1.378063e-004 
1.397420e-004 
1.419493e-004 
1.443249e-004 
1.469425e-004 
1.497874e-004 
1.526975e-004 
1.556668e-004 
1.587613e-004 
1.618665e-004 
1.648747e-004 
1.678639e-004 
1.708253e-004 
1.736226e-004 
1.762587e-004 
1.788198e-004 
1.812231e-004 
1.833963e-004 
1.854222e-004 
1.873322e-004 
1.890227e-004 
1.905172e-004 
1.919044e-004 
1.931512e-004 
1.941897e-004 
1.951117e-004 
1.959521e-004 
1.966466e-004 
1.971886e-004 
1.976837e-004 
1.980928e-004 
1.983697e-004 
1.985540e-004 
1.987153e-004 
1.987600e-004 
1.987096e-004 
1.985883e-004 
1.983819e-004 
1.979925e-004 
1.975524e-004 
1.000000e+000 
1.000000e+000 
1.243259e-004 
1.241757e-004 
1.241506e-004 
1.241844e-004 
1.242547e-004 
1.244226e-004 
1.246619e-004 
1.249286e-004 
1.252446e-004 
1.256507e-004 
1.260821e-004 
1.265220e-004 
1.270312e-004 
1.276050e-004 
1.281668e-004 
1.287531e-004 
1.294248e-004 
1.301228e-004 
1.308000e-004 
1.315435e-004 
1.323701e-004 
1.331869e-004 
1.340124e-004 
1.349474e-004 
1.359373e-004 
1.369025e-004 
1.379351e-004 
1.390933e-004 
1.402605e-004 
1.414235e-004 
1.427144e-004 
1.441024e-004 
1.454574e-004 
1.468613e-004 
1.484201e-004 
1.500037e-004 
1.515390e-004 
1.531841e-004 
1.549458e-004 
1.566377e-004 
1.583025e-004 
1.601021e-004 
1.619042e-004 
1.635566e-004 
1.652241e-004 
1.669712e-004 
1.685587e-004 
1.699670e-004 
1.714130e-004 
1.727892e-004 
1.738611e-004 
1.747859e-004 
1.757032e-004 
1.763501e-004 
1.766417e-004 
1.768479e-004 
1.769173e-004 
1.765630e-004 
1.759318e-004 
1.752469e-004 
1.742623e-004 
1.728535e-004 
1.713352e-004 
1.697275e-004 
1.677370e-004 
1.655088e-004 
1.633296e-004 
1.609968e-004 
1.583826e-004 
1.558215e-004 
1.533834e-004 
1.508027e-004 
1.482218e-004 
1.459367e-004 
1.437807e-004 
1.416400e-004 
1.398189e-004 
1.383825e-004 
1.370956e-004 
1.360726e-004 
1.355460e-004 
1.353552e-004 
1.353893e-004 
1.358657e-004 
1.367962e-004 
1.379646e-004 
1.394281e-004 
1.413184e-004 
1.434725e-004 
1.457753e-004 
1.483479e-004 
1.511589e-004 
1.540232e-004 
1.569552e-004 
1.600216e-004 
1.630904e-004 
1.660677e-004 
1.690288e-004 
1.719509e-004 
1.747091e-004 
1.773156e-004 
1.798308e-004 
1.821801e-004 
1.843116e-004 
1.862929e-004 
1.881358e-004 
1.897707e-004 
1.912201e-004 
1.925467e-004 
1.937239e-004 
1.947204e-004 
1.955956e-004 
1.963747e-004 
1.970217e-004 
1.975429e-004 
1.979948e-004 
1.983638e-004 
1.986256e-004 
1.988052e-004 
1.989382e-004 
1.989733e-004 
1.989039e-004 
1.987601e-004 
1.985599e-004 
1.982313e-004 
1.977278e-004 
1.000000e+000 
1.000000e+000 
1.239523e-004 
1.238237e-004 
1.237749e-004 
1.238426e-004 
1.239429e-004 
1.240977e-004 
1.243531e-004 
1.246572e-004 
1.249632e-004 
1.253449e-004 
1.258010e-004 
1.262540e-004 
1.267239e-004 
1.272830e-004 
1.278678e-004 
1.284325e-004 
1.290566e-004 
1.297587e-004 
1.304438e-004 
1.311404e-004 
1.319362e-004 
1.327730e-004 
1.335858e-004 
1.344734e-004 
1.354663e-004 
1.364594e-004 
1.374692e-004 
1.386085e-004 
1.398185e-004 
1.410154e-004 
1.422970e-004 
1.437170e-004 
1.451547e-004 
1.466067e-004 
1.481946e-004 
1.498730e-004 
1.515300e-004 
1.532479e-004 
1.550933e-004 
1.569455e-004 
1.587649e-004 
1.606636e-004 
1.626104e-004 
1.644798e-004 
1.663139e-004 
1.681798e-004 
1.699726e-004 
1.716264e-004 
1.732159e-004 
1.747286e-004 
1.760561e-004 
1.772014e-004 
1.782107e-004 
1.790246e-004 
1.795862e-004 
1.799234e-004 
1.800407e-004 
1.798961e-004 
1.794775e-004 
1.787978e-004 
1.778657e-004 
1.766826e-004 
1.752342e-004 
1.735373e-004 
1.716518e-004 
1.695792e-004 
1.672901e-004 
1.648662e-004 
1.623916e-004 
1.598136e-004 
1.571484e-004 
1.545555e-004 
1.520499e-004 
1.495493e-004 
1.471855e-004 
1.450995e-004 
1.431855e-004 
1.414383e-004 
1.400673e-004 
1.390633e-004 
1.382789e-004 
1.378492e-004 
1.379076e-004 
1.382785e-004 
1.389162e-004 
1.400130e-004 
1.415032e-004 
1.431840e-004 
1.451593e-004 
1.475151e-004 
1.500322e-004 
1.526370e-004 
1.554823e-004 
1.584742e-004 
1.614077e-004 
1.643644e-004 
1.674119e-004 
1.703544e-004 
1.731301e-004 
1.758787e-004 
1.785386e-004 
1.809507e-004 
1.831984e-004 
1.853671e-004 
1.873239e-004 
1.890301e-004 
1.906258e-004 
1.920966e-004 
1.933282e-004 
1.943950e-004 
1.953980e-004 
1.962497e-004 
1.969135e-004 
1.975108e-004 
1.980552e-004 
1.984477e-004 
1.987339e-004 
1.990087e-004 
1.992015e-004 
1.992592e-004 
1.992715e-004 
1.992595e-004 
1.991084e-004 
1.988156e-004 
1.984353e-004 
1.979965e-004 
1.000000e+000 
1.000000e+000 
1.234253e-004 
1.233604e-004 
1.233439e-004 
1.234085e-004 
1.235635e-004 
1.237568e-004 
1.239733e-004 
1.242869e-004 
1.246586e-004 
1.250217e-004 
1.254270e-004 
1.259266e-004 
1.264275e-004 
1.269126e-004 
1.274801e-004 
1.281116e-004 
1.287016e-004 
1.293184e-004 
1.300475e-004 
1.307891e-004 
1.314920e-004 
1.322947e-004 
1.332026e-004 
1.340763e-004 
1.349707e-004 
1.360270e-004 
1.371386e-004 
1.382080e-004 
1.393936e-004 
1.407502e-004 
1.420935e-004 
1.434442e-004 
1.449941e-004 
1.466535e-004 
1.482518e-004 
1.499488e-004 
1.518591e-004 
1.537634e-004 
1.556101e-004 
1.576358e-004 
1.597844e-004 
1.618040e-004 
1.638188e-004 
1.660137e-004 
1.681497e-004 
1.700823e-004 
1.720700e-004 
1.741164e-004 
1.758994e-004 
1.774858e-004 
1.791290e-004 
1.806081e-004 
1.816943e-004 
1.826525e-004 
1.835646e-004 
1.840841e-004 
1.842251e-004 
1.843005e-004 
1.841447e-004 
1.834915e-004 
1.826045e-004 
1.816424e-004 
1.802880e-004 
1.785340e-004 
1.767269e-004 
1.747704e-004 
1.724177e-004 
1.699271e-004 
1.674992e-004 
1.648792e-004 
1.620709e-004 
1.594088e-004 
1.568436e-004 
1.541832e-004 
1.516611e-004 
1.494571e-004 
1.473769e-004 
1.454367e-004 
1.438967e-004 
1.427075e-004 
1.417266e-004 
1.411194e-004 
1.409832e-004 
1.411571e-004 
1.416406e-004 
1.425713e-004 
1.438695e-004 
1.454175e-004 
1.472869e-004 
1.494842e-004 
1.518727e-004 
1.544245e-004 
1.571776e-004 
1.600452e-004 
1.629380e-004 
1.658722e-004 
1.688232e-004 
1.717013e-004 
1.744859e-004 
1.771884e-004 
1.797590e-004 
1.821580e-004 
1.844026e-004 
1.864877e-004 
1.883810e-004 
1.900902e-004 
1.916365e-004 
1.930107e-004 
1.942116e-004 
1.952649e-004 
1.961813e-004 
1.969607e-004 
1.976192e-004 
1.981760e-004 
1.986340e-004 
1.990025e-004 
1.992913e-004 
1.995094e-004 
1.996555e-004 
1.997355e-004 
1.997391e-004 
1.996667e-004 
1.995048e-004 
1.992747e-004 
1.989366e-004 
1.984344e-004 
1.000000e+000 
1.000000e+000 
1.228456e-004 
1.228372e-004 
1.228655e-004 
1.229325e-004 
1.230894e-004 
1.233358e-004 
1.235868e-004 
1.238769e-004 
1.242523e-004 
1.246627e-004 
1.250626e-004 
1.255231e-004 
1.260466e-004 
1.265622e-004 
1.270867e-004 
1.276905e-004 
1.283224e-004 
1.289389e-004 
1.296100e-004 
1.303608e-004 
1.311139e-004 
1.318869e-004 
1.327585e-004 
1.336926e-004 
1.346330e-004 
1.356531e-004 
1.367905e-004 
1.379710e-004 
1.391957e-004 
1.405509e-004 
1.420116e-004 
1.435120e-004 
1.451064e-004 
1.468459e-004 
1.486607e-004 
1.505258e-004 
1.525116e-004 
1.546121e-004 
1.567502e-004 
1.589393e-004 
1.612265e-004 
1.635627e-004 
1.658872e-004 
1.682261e-004 
1.705930e-004 
1.729216e-004 
1.751644e-004 
1.773458e-004 
1.794620e-004 
1.814366e-004 
1.832276e-004 
1.848732e-004 
1.863607e-004 
1.875917e-004 
1.885514e-004 
1.893134e-004 
1.898295e-004 
1.899882e-004 
1.898533e-004 
1.895117e-004 
1.888433e-004 
1.877896e-004 
1.865179e-004 
1.850476e-004 
1.832111e-004 
1.810959e-004 
1.789037e-004 
1.765167e-004 
1.738369e-004 
1.711168e-004 
1.684444e-004 
1.656096e-004 
1.627153e-004 
1.600468e-004 
1.574810e-004 
1.548869e-004 
1.525606e-004 
1.506099e-004 
1.487830e-004 
1.471757e-004 
1.460800e-004 
1.453353e-004 
1.447768e-004 
1.446777e-004 
1.450982e-004 
1.457467e-004 
1.466840e-004 
1.481360e-004 
1.498959e-004 
1.517779e-004 
1.539900e-004 
1.565320e-004 
1.591133e-004 
1.617630e-004 
1.646416e-004 
1.675501e-004 
1.703237e-004 
1.731250e-004 
1.759518e-004 
1.785737e-004 
1.810195e-004 
1.834349e-004 
1.856858e-004 
1.876562e-004 
1.894934e-004 
1.912343e-004 
1.927219e-004 
1.939898e-004 
1.951825e-004 
1.962327e-004 
1.970513e-004 
1.977646e-004 
1.984329e-004 
1.989465e-004 
1.993132e-004 
1.996653e-004 
1.999626e-004 
2.001208e-004 
2.002154e-004 
2.003166e-004 
2.003179e-004 
2.002075e-004 
2.000579e-004 
1.998389e-004 
1.994300e-004 
1.989442e-004 
1.000000e+000 
1.000000e+000 
1.222091e-004 
1.221841e-004 
1.222776e-004 
1.224371e-004 
1.225898e-004 
1.228174e-004 
1.231372e-004 
1.234622e-004 
1.237886e-004 
1.242155e-004 
1.246825e-004 
1.251108e-004 
1.255866e-004 
1.261628e-004 
1.267133e-004 
1.272405e-004 
1.278768e-004 
1.285737e-004 
1.292087e-004 
1.298973e-004 
1.307303e-004 
1.315610e-004 
1.323603e-004 
1.333145e-004 
1.343924e-004 
1.354243e-004 
1.365244e-004 
1.378464e-004 
1.392216e-004 
1.405685e-004 
1.421096e-004 
1.438583e-004 
1.455816e-004 
1.473634e-004 
1.494197e-004 
1.515807e-004 
1.536786e-004 
1.559480e-004 
1.584607e-004 
1.609256e-004 
1.633533e-004 
1.660132e-004 
1.687555e-004 
1.713171e-004 
1.739064e-004 
1.766646e-004 
1.792682e-004 
1.816378e-004 
1.840738e-004 
1.864789e-004 
1.885221e-004 
1.903671e-004 
1.922228e-004 
1.937839e-004 
1.949050e-004 
1.958969e-004 
1.967357e-004 
1.970839e-004 
1.970686e-004 
1.969460e-004 
1.964738e-004 
1.954965e-004 
1.943170e-004 
1.929752e-004 
1.911910e-004 
1.890800e-004 
1.869056e-004 
1.845057e-004 
1.817714e-004 
1.789764e-004 
1.761879e-004 
1.732199e-004 
1.701924e-004 
1.673223e-004 
1.645130e-004 
1.617250e-004 
1.591669e-004 
1.568805e-004 
1.547682e-004 
1.529322e-004 
1.514862e-004 
1.503625e-004 
1.495614e-004 
1.491792e-004 
1.491922e-004 
1.495505e-004 
1.502950e-004 
1.514147e-004 
1.528435e-004 
1.545789e-004 
1.566029e-004 
1.588387e-004 
1.612595e-004 
1.638500e-004 
1.665290e-004 
1.692478e-004 
1.720079e-004 
1.747486e-004 
1.773996e-004 
1.799709e-004 
1.824490e-004 
1.847622e-004 
1.869034e-004 
1.889076e-004 
1.907348e-004 
1.923516e-004 
1.938053e-004 
1.951128e-004 
1.962292e-004 
1.971780e-004 
1.980151e-004 
1.987234e-004 
1.992819e-004 
1.997515e-004 
2.001525e-004 
2.004500e-004 
2.006588e-004 
2.008351e-004 
2.009492e-004 
2.009797e-004 
2.009552e-004 
2.008897e-004 
2.007237e-004 
2.004825e-004 
2.001794e-004 
1.997270e-004 
1.000000e+000 
1.000000e+000 
1.215040e-004 
1.215532e-004 
1.216376e-004 
1.218284e-004 
1.220573e-004 
1.222959e-004 
1.225985e-004 
1.229753e-004 
1.233445e-004 
1.237313e-004 
1.241941e-004 
1.246896e-004 
1.251606e-004 
1.256786e-004 
1.262688e-004 
1.268563e-004 
1.274406e-004 
1.281099e-004 
1.288355e-004 
1.295519e-004 
1.303198e-004 
1.312016e-004 
1.321246e-004 
1.330702e-004 
1.341335e-004 
1.353210e-004 
1.365493e-004 
1.378602e-004 
1.393407e-004 
1.409378e-004 
1.425934e-004 
1.443951e-004 
1.463847e-004 
1.484681e-004 
1.506332e-004 
1.529832e-004 
1.554940e-004 
1.580554e-004 
1.607088e-004 
1.635392e-004 
1.664488e-004 
1.693423e-004 
1.723132e-004 
1.753926e-004 
1.784168e-004 
1.813469e-004 
1.843139e-004 
1.872551e-004 
1.899792e-004 
1.925502e-004 
1.950882e-004 
1.974123e-004 
1.993858e-004 
2.011906e-004 
2.028501e-004 
2.040998e-004 
2.049615e-004 
2.056700e-004 
2.060762e-004 
2.059560e-004 
2.055380e-004 
2.049633e-004 
2.039335e-004 
2.024310e-004 
2.008018e-004 
1.989576e-004 
1.966182e-004 
1.940496e-004 
1.914990e-004 
1.886647e-004 
1.855085e-004 
1.824521e-004 
1.794551e-004 
1.762162e-004 
1.730222e-004 
1.701651e-004 
1.673451e-004 
1.645195e-004 
1.621155e-004 
1.600874e-004 
1.581322e-004 
1.565167e-004 
1.554864e-004 
1.547287e-004 
1.541905e-004 
1.542185e-004 
1.547116e-004 
1.553732e-004 
1.564027e-004 
1.579414e-004 
1.596764e-004 
1.615383e-004 
1.637624e-004 
1.662126e-004 
1.686292e-004 
1.711465e-004 
1.738418e-004 
1.764573e-004 
1.789351e-004 
1.814491e-004 
1.839008e-004 
1.861035e-004 
1.881676e-004 
1.901764e-004 
1.919617e-004 
1.934945e-004 
1.949307e-004 
1.962374e-004 
1.972910e-004 
1.981873e-004 
1.990243e-004 
1.997046e-004 
2.001999e-004 
2.006446e-004 
2.010421e-004 
2.012978e-004 
2.014645e-004 
2.016394e-004 
2.017476e-004 
2.017422e-004 
2.017088e-004 
2.016728e-004 
2.015210e-004 
2.012473e-004 
2.009188e-004 
2.005470e-004 
1.000000e+000 
1.000000e+000 
1.206778e-004 
1.208282e-004 
1.209842e-004 
1.211658e-004 
1.214427e-004 
1.217596e-004 
1.220463e-004 
1.224050e-004 
1.228466e-004 
1.232602e-004 
1.236687e-004 
1.241873e-004 
1.247293e-004 
1.252162e-004 
1.257704e-004 
1.264334e-004 
1.270552e-004 
1.276692e-004 
1.284286e-004 
1.292501e-004 
1.300153e-004 
1.308840e-004 
1.319324e-004 
1.329819e-004 
1.340430e-004 
1.353269e-004 
1.367573e-004 
1.381654e-004 
1.397192e-004 
1.415530e-004 
1.434534e-004 
1.453807e-004 
1.475859e-004 
1.500234e-004 
1.524518e-004 
1.550124e-004 
1.578946e-004 
1.608675e-004 
1.638038e-004 
1.669656e-004 
1.703506e-004 
1.736524e-004 
1.769439e-004 
1.804587e-004 
1.839758e-004 
1.872820e-004 
1.906149e-004 
1.940290e-004 
1.971941e-004 
2.001105e-004 
2.030326e-004 
2.057899e-004 
2.081289e-004 
2.102482e-004 
2.122531e-004 
2.138523e-004 
2.150081e-004 
2.159676e-004 
2.166299e-004 
2.167733e-004 
2.165615e-004 
2.161211e-004 
2.152483e-004 
2.139218e-004 
2.123529e-004 
2.105010e-004 
2.082386e-004 
2.057077e-004 
2.030150e-004 
2.000648e-004 
1.968939e-004 
1.936501e-004 
1.903275e-004 
1.869191e-004 
1.835418e-004 
1.802425e-004 
1.770225e-004 
1.739715e-004 
1.711397e-004 
1.685232e-004 
1.662065e-004 
1.642428e-004 
1.625874e-004 
1.612953e-004 
1.604511e-004 
1.599779e-004 
1.598463e-004 
1.601624e-004 
1.608791e-004 
1.618647e-004 
1.631821e-004 
1.648641e-004 
1.667397e-004 
1.687615e-004 
1.710219e-004 
1.734136e-004 
1.757830e-004 
1.781992e-004 
1.806777e-004 
1.830462e-004 
1.852781e-004 
1.874760e-004 
1.895560e-004 
1.914029e-004 
1.931065e-004 
1.947139e-004 
1.961033e-004 
1.972763e-004 
1.983538e-004 
1.993001e-004 
2.000323e-004 
2.006455e-004 
2.012084e-004 
2.016349e-004 
2.019219e-004 
2.021870e-004 
2.024100e-004 
2.025130e-004 
2.025623e-004 
2.026259e-004 
2.026106e-004 
2.024893e-004 
2.023515e-004 
2.021940e-004 
2.019039e-004 
2.014797e-004 
1.000000e+000 
1.000000e+000 
1.198504e-004 
1.200386e-004 
1.202763e-004 
1.205158e-004 
1.207780e-004 
1.211288e-004 
1.214993e-004 
1.218507e-004 
1.222544e-004 
1.227361e-004 