# vtk DataFile Version 2.0
2D-ADE data file 
ASCII
DATASET RECTILINEAR_GRID
DIMENSIONS 128 128 1
X_COORDINATES 128 int
0 1 2 3 4 5 6 7 8 9 10 11 12 13 14 15 16 17 18 19 20 21 22 23 24 25 26 27 28 29 30 31 32 33 34 35 36 37 38 39 40 41 42 43 44 45 46 47 48 49 50 51 52 53 54 55 56 57 58 59 60 61 62 63 64 65 66 67 68 69 70 71 72 73 74 75 76 77 78 79 80 81 82 83 84 85 86 87 88 89 90 91 92 93 94 95 96 97 98 99 100 101 102 103 104 105 106 107 108 109 110 111 112 113 114 115 116 117 118 119 120 121 122 123 124 125 126 127 
Y_COORDINATES 128 int
0 1 2 3 4 5 6 7 8 9 10 11 12 13 14 15 16 17 18 19 20 21 22 23 24 25 26 27 28 29 30 31 32 33 34 35 36 37 38 39 40 41 42 43 44 45 46 47 48 49 50 51 52 53 54 55 56 57 58 59 60 61 62 63 64 65 66 67 68 69 70 71 72 73 74 75 76 77 78 79 80 81 82 83 84 85 86 87 88 89 90 91 92 93 94 95 96 97 98 99 100 101 102 103 104 105 106 107 108 109 110 111 112 113 114 115 116 117 118 119 120 121 122 123 124 125 126 127 
Z_COORDINATES 1 int
0
POINT_DATA 16384 
SCALARS density double 1
LOOKUP_TABLE default
1.000000e+000 
1.000000e+000 
1.000000e+000 
1.000000e+000 
1.000000e+000 
1.000000e+000 
1.000000e+000 
1.000000e+000 
1.000000e+000 
1.000000e+000 
1.000000e+000 
1.000000e+000 
1.000000e+000 
1.000000e+000 
1.000000e+000 
1.000000e+000 
1.000000e+000 
1.000000e+000 
1.000000e+000 
1.000000e+000 
1.000000e+000 
1.000000e+000 
1.000000e+000 
1.000000e+000 
1.000000e+000 
1.000000e+000 
1.000000e+000 
1.000000e+000 
1.000000e+000 
1.000000e+000 
1.000000e+000 
1.000000e+000 
1.000000e+000 
1.000000e+000 
1.000000e+000 
1.000000e+000 
1.000000e+000 
1.000000e+000 
1.000000e+000 
1.000000e+000 
1.000000e+000 
1.000000e+000 
1.000000e+000 
1.000000e+000 
1.000000e+000 
1.000000e+000 
1.000000e+000 
1.000000e+000 
1.000000e+000 
1.000000e+000 
1.000000e+000 
1.000000e+000 
1.000000e+000 
1.000000e+000 
1.000000e+000 
1.000000e+000 
1.000000e+000 
1.000000e+000 
1.000000e+000 
1.000000e+000 
1.000000e+000 
1.000000e+000 
1.000000e+000 
1.000000e+000 
1.000000e+000 
1.000000e+000 
1.000000e+000 
1.000000e+000 
1.000000e+000 
1.000000e+000 
1.000000e+000 
1.000000e+000 
1.000000e+000 
1.000000e+000 
1.000000e+000 
1.000000e+000 
1.000000e+000 
1.000000e+000 
1.000000e+000 
1.000000e+000 
1.000000e+000 
1.000000e+000 
1.000000e+000 
1.000000e+000 
1.000000e+000 
1.000000e+000 
1.000000e+000 
1.000000e+000 
1.000000e+000 
1.000000e+000 
1.000000e+000 
1.000000e+000 
1.000000e+000 
1.000000e+000 
1.000000e+000 
1.000000e+000 
1.000000e+000 
1.000000e+000 
1.000000e+000 
1.000000e+000 
1.000000e+000 
1.000000e+000 
1.000000e+000 
1.000000e+000 
1.000000e+000 
1.000000e+000 
1.000000e+000 
1.000000e+000 
1.000000e+000 
1.000000e+000 
1.000000e+000 
1.000000e+000 
1.000000e+000 
1.000000e+000 
1.000000e+000 
1.000000e+000 
1.000000e+000 
1.000000e+000 
1.000000e+000 
1.000000e+000 
1.000000e+000 
1.000000e+000 
1.000000e+000 
1.000000e+000 
1.000000e+000 
1.000000e+000 
1.000000e+000 
1.000000e+000 
1.000000e+000 
1.487930e-004 
1.487654e-004 
1.487885e-004 
1.488628e-004 
1.489353e-004 
1.490373e-004 
1.491977e-004 
1.493342e-004 
1.494628e-004 
1.496245e-004 
1.498126e-004 
1.499397e-004 
1.500897e-004 
1.502747e-004 
1.504430e-004 
1.505574e-004 
1.507353e-004 
1.509236e-004 
1.510624e-004 
1.511916e-004 
1.514017e-004 
1.515726e-004 
1.516951e-004 
1.518648e-004 
1.520872e-004 
1.522231e-004 
1.523536e-004 
1.525631e-004 
1.527568e-004 
1.528541e-004 
1.530109e-004 
1.532233e-004 
1.533459e-004 
1.534173e-004 
1.535916e-004 
1.537434e-004 
1.537732e-004 
1.538332e-004 
1.539771e-004 
1.540045e-004 
1.539478e-004 
1.539876e-004 
1.540232e-004 
1.538912e-004 
1.537677e-004 
1.537386e-004 
1.535895e-004 
1.533064e-004 
1.531208e-004 
1.529433e-004 
1.525745e-004 
1.521801e-004 
1.519016e-004 
1.515061e-004 
1.509487e-004 
1.504836e-004 
1.500585e-004 
1.494377e-004 
1.487796e-004 
1.482611e-004 
1.476607e-004 
1.469002e-004 
1.462470e-004 
1.456792e-004 
1.449564e-004 
1.442144e-004 
1.436518e-004 
1.430696e-004 
1.423759e-004 
1.418217e-004 
1.414116e-004 
1.409205e-004 
1.404575e-004 
1.402117e-004 
1.400177e-004 
1.397817e-004 
1.397134e-004 
1.398283e-004 
1.399325e-004 
1.401014e-004 
1.404887e-004 
1.409661e-004 
1.414410e-004 
1.420700e-004 
1.428649e-004 
1.436724e-004 
1.445276e-004 
1.455480e-004 
1.466320e-004 
1.477019e-004 
1.488539e-004 
1.501078e-004 
1.513371e-004 
1.525619e-004 
1.538551e-004 
1.551603e-004 
1.563975e-004 
1.576443e-004 
1.589056e-004 
1.601105e-004 
1.612432e-004 
1.623835e-004 
1.634748e-004 
1.644843e-004 
1.654335e-004 
1.663721e-004 
1.672157e-004 
1.679890e-004 
1.687085e-004 
1.693958e-004 
1.699683e-004 
1.704988e-004 
1.709678e-004 
1.713908e-004 
1.716986e-004 
1.719904e-004 
1.722017e-004 
1.723659e-004 
1.724227e-004 
1.724815e-004 
1.724474e-004 
1.723819e-004 
1.722376e-004 
1.721243e-004 
1.720117e-004 
1.719519e-004 
1.000000e+000 
1.000000e+000 
1.487966e-004 
1.487762e-004 
1.487832e-004 
1.488613e-004 
1.489390e-004 
1.490129e-004 
1.491476e-004 
1.492840e-004 
1.494164e-004 
1.495374e-004 
1.497182e-004 
1.498555e-004 
1.499993e-004 
1.501446e-004 
1.503295e-004 
1.504539e-004 
1.506094e-004 
1.507721e-004 
1.509451e-004 
1.510681e-004 
1.512445e-004 
1.514146e-004 
1.515729e-004 
1.517101e-004 
1.519037e-004 
1.520647e-004 
1.522118e-004 
1.523670e-004 
1.525559e-004 
1.526913e-004 
1.528295e-004 
1.529859e-004 
1.531385e-004 
1.532367e-004 
1.533568e-004 
1.534793e-004 
1.535664e-004 
1.536167e-004 
1.536918e-004 
1.537390e-004 
1.537401e-004 
1.537233e-004 
1.537135e-004 
1.536516e-004 
1.535495e-004 
1.534348e-004 
1.533019e-004 
1.531098e-004 
1.528843e-004 
1.526392e-004 
1.523616e-004 
1.520270e-004 
1.516589e-004 
1.512698e-004 
1.508469e-004 
1.503659e-004 
1.498574e-004 
1.493433e-004 
1.487924e-004 
1.481845e-004 
1.475811e-004 
1.469908e-004 
1.463510e-004 
1.456844e-004 
1.450754e-004 
1.444761e-004 
1.438274e-004 
1.432256e-004 
1.427181e-004 
1.421947e-004 
1.416705e-004 
1.412805e-004 
1.409693e-004 
1.406339e-004 
1.403957e-004 
1.403303e-004 
1.402888e-004 
1.402724e-004 
1.404437e-004 
1.407428e-004 
1.410292e-004 
1.414333e-004 
1.420357e-004 
1.426730e-004 
1.433209e-004 
1.441535e-004 
1.450990e-004 
1.460123e-004 
1.469975e-004 
1.481492e-004 
1.492898e-004 
1.503985e-004 
1.516156e-004 
1.529024e-004 
1.540924e-004 
1.552971e-004 
1.565793e-004 
1.578187e-004 
1.589480e-004 
1.601327e-004 
1.613080e-004 
1.623774e-004 
1.633728e-004 
1.644233e-004 
1.653695e-004 
1.662186e-004 
1.670310e-004 
1.678610e-004 
1.685272e-004 
1.691550e-004 
1.697480e-004 
1.703143e-004 
1.707055e-004 
1.711259e-004 
1.714726e-004 
1.717708e-004 
1.719161e-004 
1.721358e-004 
1.722241e-004 
1.722781e-004 
1.722220e-004 
1.722535e-004 
1.721320e-004 
1.720267e-004 
1.719542e-004 
1.719354e-004 
1.000000e+000 
1.000000e+000 
1.487518e-004 
1.487779e-004 
1.487855e-004 
1.488083e-004 
1.488990e-004 
1.490100e-004 
1.490867e-004 
1.491988e-004 
1.493615e-004 
1.494850e-004 
1.495921e-004 
1.497565e-004 
1.499264e-004 
1.500332e-004 
1.501719e-004 
1.503624e-004 
1.505061e-004 
1.506111e-004 
1.507924e-004 
1.509805e-004 
1.510934e-004 
1.512282e-004 
1.514432e-004 
1.515987e-004 
1.517002e-004 
1.518832e-004 
1.520941e-004 
1.521999e-004 
1.523190e-004 
1.525332e-004 
1.526890e-004 
1.527521e-004 
1.529029e-004 
1.530939e-004 
1.531573e-004 
1.532017e-004 
1.533607e-004 
1.534571e-004 
1.534240e-004 
1.534646e-004 
1.535665e-004 
1.535149e-004 
1.534094e-004 
1.534243e-004 
1.533852e-004 
1.531761e-004 
1.530225e-004 
1.529459e-004 
1.527059e-004 
1.523734e-004 
1.521640e-004 
1.519148e-004 
1.514743e-004 
1.510672e-004 
1.507564e-004 
1.502913e-004 
1.497152e-004 
1.492632e-004 
1.488019e-004 
1.481593e-004 
1.475459e-004 
1.470526e-004 
1.464474e-004 
1.457487e-004 
1.451874e-004 
1.446643e-004 
1.440147e-004 
1.434173e-004 
1.429722e-004 
1.424865e-004 
1.419638e-004 
1.416008e-004 
1.413306e-004 
1.410158e-004 
1.407905e-004 
1.407403e-004 
1.407213e-004 
1.407269e-004 
1.408982e-004 
1.411914e-004 
1.415031e-004 
1.419169e-004 
1.424884e-004 
1.431206e-004 
1.437969e-004 
1.446005e-004 
1.455008e-004 
1.464279e-004 
1.474179e-004 
1.485016e-004 
1.496169e-004 
1.507453e-004 
1.519228e-004 
1.531349e-004 
1.543338e-004 
1.555333e-004 
1.567436e-004 
1.579373e-004 
1.590928e-004 
1.602302e-004 
1.613386e-004 
1.624008e-004 
1.634108e-004 
1.643840e-004 
1.653019e-004 
1.661631e-004 
1.669632e-004 
1.677160e-004 
1.684025e-004 
1.690315e-004 
1.695954e-004 
1.701111e-004 
1.705574e-004 
1.709492e-004 
1.712764e-004 
1.715604e-004 
1.717729e-004 
1.719369e-004 
1.720442e-004 
1.721137e-004 
1.721170e-004 
1.720900e-004 
1.720405e-004 
1.719618e-004 
1.718666e-004 
1.717977e-004 
1.000000e+000 
1.000000e+000 
1.486964e-004 
1.486963e-004 
1.487359e-004 
1.487774e-004 
1.488375e-004 
1.489421e-004 
1.490415e-004 
1.491415e-004 
1.492609e-004 
1.494061e-004 
1.495240e-004 
1.496507e-004 
1.497969e-004 
1.499482e-004 
1.500692e-004 
1.502143e-004 
1.503727e-004 
1.505189e-004 
1.506473e-004 
1.508107e-004 
1.509721e-004 
1.511131e-004 
1.512561e-004 
1.514319e-004 
1.515864e-004 
1.517243e-004 
1.518804e-004 
1.520530e-004 
1.521889e-004 
1.523211e-004 
1.524764e-004 
1.526226e-004 
1.527273e-004 
1.528432e-004 
1.529725e-004 
1.530664e-004 
1.531253e-004 
1.532056e-004 
1.532767e-004 
1.532925e-004 
1.532892e-004 
1.533076e-004 
1.532849e-004 
1.531996e-004 
1.531175e-004 
1.530418e-004 
1.528907e-004 
1.526898e-004 
1.525134e-004 
1.523081e-004 
1.520050e-004 
1.516901e-004 
1.514037e-004 
1.510385e-004 
1.505884e-004 
1.501781e-004 
1.497667e-004 
1.492389e-004 
1.486886e-004 
1.482119e-004 
1.476746e-004 
1.470371e-004 
1.464701e-004 
1.459589e-004 
1.453392e-004 
1.447101e-004 
1.442199e-004 
1.437186e-004 
1.431304e-004 
1.426629e-004 
1.423250e-004 
1.419160e-004 
1.415304e-004 
1.413518e-004 
1.412213e-004 
1.410353e-004 
1.410139e-004 
1.411784e-004 
1.413091e-004 
1.414861e-004 
1.418997e-004 
1.423900e-004 
1.428385e-004 
1.434487e-004 
1.442455e-004 
1.450088e-004 
1.457995e-004 
1.467888e-004 
1.478330e-004 
1.488067e-004 
1.498860e-004 
1.510931e-004 
1.522342e-004 
1.533426e-004 
1.545738e-004 
1.558044e-004 
1.569248e-004 
1.580694e-004 
1.592781e-004 
1.603804e-004 
1.614036e-004 
1.624714e-004 
1.635101e-004 
1.644068e-004 
1.652839e-004 
1.661737e-004 
1.669627e-004 
1.676382e-004 
1.683342e-004 
1.689813e-004 
1.695087e-004 
1.699762e-004 
1.704649e-004 
1.708481e-004 
1.711419e-004 
1.714154e-004 
1.716815e-004 
1.718149e-004 
1.719149e-004 
1.720052e-004 
1.720568e-004 
1.719863e-004 
1.719461e-004 
1.719018e-004 
1.718054e-004 
1.716476e-004 
1.000000e+000 
1.000000e+000 
1.486258e-004 
1.486059e-004 
1.486436e-004 
1.487307e-004 
1.487828e-004 
1.488459e-004 
1.489718e-004 
1.490932e-004 
1.491682e-004 
1.492943e-004 
1.494544e-004 
1.495647e-004 
1.496629e-004 
1.498343e-004 
1.499857e-004 
1.500810e-004 
1.502202e-004 
1.504123e-004 
1.505334e-004 
1.506397e-004 
1.508266e-004 
1.510052e-004 
1.511000e-004 
1.512471e-004 
1.514584e-004 
1.515929e-004 
1.516862e-004 
1.518796e-004 
1.520667e-004 
1.521479e-004 
1.522668e-004 
1.524729e-004 
1.525859e-004 
1.526309e-004 
1.527774e-004 
1.529316e-004 
1.529471e-004 
1.529818e-004 
1.531154e-004 
1.531522e-004 
1.530821e-004 
1.531103e-004 
1.531567e-004 
1.530428e-004 
1.529165e-004 
1.528984e-004 
1.527837e-004 
1.525324e-004 
1.523622e-004 
1.522245e-004 
1.519170e-004 
1.515703e-004 
1.513301e-004 
1.510089e-004 
1.505385e-004 
1.501332e-004 
1.497740e-004 
1.492647e-004 
1.487071e-004 
1.482554e-004 
1.477556e-004 
1.471330e-004 
1.465728e-004 
1.460809e-004 
1.454944e-004 
1.448877e-004 
1.443945e-004 
1.439079e-004 
1.433669e-004 
1.429085e-004 
1.425477e-004 
1.421754e-004 
1.418396e-004 
1.416294e-004 
1.414841e-004 
1.413682e-004 
1.413575e-004 
1.414602e-004 
1.416239e-004 
1.418688e-004 
1.422291e-004 
1.426792e-004 
1.432071e-004 
1.438278e-004 
1.445371e-004 
1.453244e-004 
1.461873e-004 
1.471118e-004 
1.480974e-004 
1.491455e-004 
1.502319e-004 
1.513401e-004 
1.524897e-004 
1.536640e-004 
1.548268e-004 
1.559881e-004 
1.571660e-004 
1.583162e-004 
1.594243e-004 
1.605209e-004 
1.615977e-004 
1.626058e-004 
1.635694e-004 
1.645099e-004 
1.653936e-004 
1.661964e-004 
1.669675e-004 
1.676947e-004 
1.683442e-004 
1.689263e-004 
1.694859e-004 
1.699768e-004 
1.703933e-004 
1.707650e-004 
1.711095e-004 
1.713674e-004 
1.715754e-004 
1.717525e-004 
1.718871e-004 
1.719352e-004 
1.719678e-004 
1.719733e-004 
1.719260e-004 
1.718173e-004 
1.716850e-004 
1.715433e-004 
1.000000e+000 
1.000000e+000 
1.484861e-004 
1.485242e-004 
1.485532e-004 
1.486165e-004 
1.487090e-004 
1.487912e-004 
1.488733e-004 
1.489908e-004 
1.491130e-004 
1.492108e-004 
1.493255e-004 
1.494704e-004 
1.495942e-004 
1.497000e-004 
1.498430e-004 
1.499968e-004 
1.501130e-004 
1.502367e-004 
1.504049e-004 
1.505528e-004 
1.506667e-004 
1.508195e-004 
1.509993e-004 
1.511299e-004 
1.512537e-004 
1.514332e-004 
1.515995e-004 
1.517085e-004 
1.518501e-004 
1.520337e-004 
1.521590e-004 
1.522497e-004 
1.524024e-004 
1.525512e-004 
1.526162e-004 
1.526932e-004 
1.528290e-004 
1.528996e-004 
1.528991e-004 
1.529576e-004 
1.530290e-004 
1.529881e-004 
1.529281e-004 
1.529428e-004 
1.528940e-004 
1.527306e-004 
1.526163e-004 
1.525389e-004 
1.523264e-004 
1.520553e-004 
1.518765e-004 
1.516480e-004 
1.512646e-004 
1.509172e-004 
1.506419e-004 
1.502240e-004 
1.497135e-004 
1.493190e-004 
1.489087e-004 
1.483233e-004 
1.477720e-004 
1.473435e-004 
1.467943e-004 
1.461438e-004 
1.456478e-004 
1.451938e-004 
1.445817e-004 
1.440258e-004 
1.436568e-004 
1.432197e-004 
1.427081e-004 
1.423993e-004 
1.421996e-004 
1.418895e-004 
1.416722e-004 
1.416935e-004 
1.417045e-004 
1.416804e-004 
1.418853e-004 
1.422381e-004 
1.425217e-004 
1.429103e-004 
1.435381e-004 
1.441773e-004 
1.447903e-004 
1.456022e-004 
1.465416e-004 
1.474118e-004 
1.483475e-004 
1.494608e-004 
1.505582e-004 
1.515958e-004 
1.527523e-004 
1.539744e-004 
1.550949e-004 
1.562130e-004 
1.574232e-004 
1.585765e-004 
1.596262e-004 
1.607157e-004 
1.618140e-004 
1.627889e-004 
1.637087e-004 
1.646622e-004 
1.655402e-004 
1.662993e-004 
1.670508e-004 
1.677918e-004 
1.684139e-004 
1.689645e-004 
1.695226e-004 
1.700196e-004 
1.704030e-004 
1.707648e-004 
1.711164e-004 
1.713758e-004 
1.715573e-004 
1.717444e-004 
1.718876e-004 
1.719385e-004 
1.719529e-004 
1.719715e-004 
1.719086e-004 
1.717926e-004 
1.716746e-004 
1.715006e-004 
1.000000e+000 
1.000000e+000 
1.483208e-004 
1.484018e-004 
1.484646e-004 
1.485064e-004 
1.486015e-004 
1.487219e-004 
1.487946e-004 
1.488805e-004 
1.490244e-004 
1.491410e-004 
1.492193e-004 
1.493504e-004 
1.495069e-004 
1.496030e-004 
1.497064e-004 
1.498751e-004 
1.500159e-004 
1.501050e-004 
1.502538e-004 
1.504364e-004 
1.505496e-004 
1.506610e-004 
1.508531e-004 
1.510158e-004 
1.511109e-004 
1.512660e-004 
1.514686e-004 
1.515861e-004 
1.516874e-004 
1.518779e-004 
1.520416e-004 
1.521123e-004 
1.522373e-004 
1.524196e-004 
1.525044e-004 
1.525475e-004 
1.526838e-004 
1.527958e-004 
1.527915e-004 
1.528237e-004 
1.529213e-004 
1.529130e-004 
1.528366e-004 
1.528446e-004 
1.528347e-004 
1.526917e-004 
1.525612e-004 
1.524946e-004 
1.523253e-004 
1.520669e-004 
1.518741e-004 
1.516696e-004 
1.513342e-004 
1.509887e-004 
1.506980e-004 
1.503230e-004 
1.498608e-004 
1.494434e-004 
1.490254e-004 
1.485100e-004 
1.479827e-004 
1.475021e-004 
1.469804e-004 
1.464120e-004 
1.458833e-004 
1.453778e-004 
1.448477e-004 
1.443371e-004 
1.438782e-004 
1.434449e-004 
1.430423e-004 
1.426939e-004 
1.424029e-004 
1.421799e-004 
1.420259e-004 
1.419320e-004 
1.419286e-004 
1.420311e-004 
1.421971e-004 
1.424379e-004 
1.428104e-004 
1.432749e-004 
1.437820e-004 
1.443993e-004 
1.451443e-004 
1.459240e-004 
1.467498e-004 
1.477035e-004 
1.487175e-004 
1.497183e-004 
1.507884e-004 
1.519467e-004 
1.530772e-004 
1.541904e-004 
1.553755e-004 
1.565631e-004 
1.576714e-004 
1.587865e-004 
1.599322e-004 
1.609992e-004 
1.619924e-004 
1.630061e-004 
1.639821e-004 
1.648464e-004 
1.656746e-004 
1.665055e-004 
1.672414e-004 
1.678865e-004 
1.685266e-004 
1.691288e-004 
1.696171e-004 
1.700626e-004 
1.705047e-004 
1.708694e-004 
1.711414e-004 
1.714120e-004 
1.716514e-004 
1.717971e-004 
1.718921e-004 
1.719966e-004 
1.720305e-004 
1.719906e-004 
1.719333e-004 
1.718468e-004 
1.716498e-004 
1.714251e-004 
1.000000e+000 
1.000000e+000 
1.481871e-004 
1.482384e-004 
1.483310e-004 
1.484296e-004 
1.484982e-004 
1.485928e-004 
1.487205e-004 
1.488190e-004 
1.489010e-004 
1.490313e-004 
1.491647e-004 
1.492515e-004 
1.493590e-004 
1.495161e-004 
1.496352e-004 
1.497231e-004 
1.498715e-004 
1.500368e-004 
1.501364e-004 
1.502521e-004 
1.504392e-004 
1.505875e-004 
1.506802e-004 
1.508427e-004 
1.510414e-004 
1.511541e-004 
1.512635e-004 
1.514662e-004 
1.516335e-004 
1.517111e-004 
1.518551e-004 
1.520597e-004 
1.521583e-004 
1.522199e-004 
1.523911e-004 
1.525386e-004 
1.525562e-004 
1.526231e-004 
1.527782e-004 
1.528139e-004 
1.527667e-004 
1.528375e-004 
1.529057e-004 
1.528040e-004 
1.527205e-004 
1.527536e-004 
1.526641e-004 
1.524395e-004 
1.523315e-004 
1.522507e-004 
1.519679e-004 
1.516641e-004 
1.515039e-004 
1.512329e-004 
1.507822e-004 
1.504419e-004 
1.501681e-004 
1.496829e-004 
1.491470e-004 
1.487842e-004 
1.483459e-004 
1.477136e-004 
1.471969e-004 
1.467988e-004 
1.462182e-004 
1.455903e-004 
1.451745e-004 
1.447438e-004 
1.441523e-004 
1.437034e-004 
1.434311e-004 
1.430415e-004 
1.426441e-004 
1.424963e-004 
1.423995e-004 
1.422055e-004 
1.421833e-004 
1.423725e-004 
1.425099e-004 
1.426789e-004 
1.430984e-004 
1.435990e-004 
1.440473e-004 
1.446561e-004 
1.454529e-004 
1.462195e-004 
1.470115e-004 
1.479935e-004 
1.490282e-004 
1.500043e-004 
1.510749e-004 
1.522577e-004 
1.533835e-004 
1.544849e-004 
1.556814e-004 
1.568729e-004 
1.579710e-004 
1.590841e-004 
1.602306e-004 
1.612883e-004 
1.622744e-004 
1.632816e-004 
1.642458e-004 
1.650993e-004 
1.659196e-004 
1.667337e-004 
1.674557e-004 
1.680926e-004 
1.687186e-004 
1.693007e-004 
1.697831e-004 
1.702198e-004 
1.706437e-004 
1.709976e-004 
1.712726e-004 
1.715299e-004 
1.717568e-004 
1.719056e-004 
1.720039e-004 
1.720934e-004 
1.721271e-004 
1.720834e-004 
1.720088e-004 
1.719190e-004 
1.717537e-004 
1.714937e-004 
1.000000e+000 
1.000000e+000 
1.480311e-004 
1.480952e-004 
1.481843e-004 
1.483159e-004 
1.484130e-004 
1.484876e-004 
1.486096e-004 
1.487417e-004 
1.488227e-004 
1.489201e-004 
1.490643e-004 
1.491775e-004 
1.492579e-004 
1.493904e-004 
1.495389e-004 
1.496349e-004 
1.497419e-004 
1.499075e-004 
1.500438e-004 
1.501414e-004 
1.502923e-004 
1.504700e-004 
1.505877e-004 
1.507106e-004 
1.508977e-004 
1.510581e-004 
1.511656e-004 
1.513244e-004 
1.515149e-004 
1.516377e-004 
1.517506e-004 
1.519298e-004 
1.520817e-004 
1.521658e-004 
1.522895e-004 
1.524480e-004 
1.525316e-004 
1.525873e-004 
1.527013e-004 
1.527902e-004 
1.527983e-004 
1.528265e-004 
1.528853e-004 
1.528702e-004 
1.528075e-004 
1.527834e-004 
1.527365e-004 
1.526063e-004 
1.524683e-004 
1.523472e-004 
1.521634e-004 
1.519207e-004 
1.516845e-004 
1.514290e-004 
1.511076e-004 
1.507539e-004 
1.503960e-004 
1.500055e-004 
1.495687e-004 
1.491079e-004 
1.486407e-004 
1.481588e-004 
1.476428e-004 
1.471106e-004 
1.466040e-004 
1.461022e-004 
1.455674e-004 
1.450596e-004 
1.446240e-004 
1.441856e-004 
1.437399e-004 
1.434005e-004 
1.431433e-004 
1.428668e-004 
1.426626e-004 
1.426225e-004 
1.426196e-004 
1.426241e-004 
1.427997e-004 
1.431142e-004 
1.434143e-004 
1.438066e-004 
1.444042e-004 
1.450428e-004 
1.456736e-004 
1.464774e-004 
1.474116e-004 
1.482977e-004 
1.492405e-004 
1.503528e-004 
1.514606e-004 
1.525065e-004 
1.536637e-004 
1.548906e-004 
1.560134e-004 
1.571240e-004 
1.583305e-004 
1.594779e-004 
1.605086e-004 
1.615782e-004 
1.626626e-004 
1.636090e-004 
1.644926e-004 
1.654190e-004 
1.662671e-004 
1.669793e-004 
1.676915e-004 
1.684017e-004 
1.689816e-004 
1.694838e-004 
1.700132e-004 
1.704793e-004 
1.708218e-004 
1.711532e-004 
1.714923e-004 
1.717256e-004 
1.718839e-004 
1.720663e-004 
1.722059e-004 
1.722333e-004 
1.722415e-004 
1.722616e-004 
1.721847e-004 
1.720108e-004 
1.718275e-004 
1.716234e-004 
1.000000e+000 
1.000000e+000 
1.478280e-004 
1.479749e-004 
1.480730e-004 
1.481610e-004 
1.483009e-004 
1.484296e-004 
1.485052e-004 
1.486150e-004 
1.487634e-004 
1.488579e-004 
1.489325e-004 
1.490768e-004 
1.492135e-004 
1.492826e-004 
1.493929e-004 
1.495664e-004 
1.496748e-004 
1.497515e-004 
1.499201e-004 
1.500949e-004 
1.501767e-004 
1.503003e-004 
1.505150e-004 
1.506563e-004 
1.507366e-004 
1.509269e-004 
1.511420e-004 
1.512332e-004 
1.513487e-004 
1.515858e-004 
1.517450e-004 
1.518016e-004 
1.519738e-004 
1.521984e-004 
1.522673e-004 
1.523275e-004 
1.525364e-004 
1.526745e-004 
1.526601e-004 
1.527528e-004 
1.529315e-004 
1.529304e-004 
1.528726e-004 
1.529829e-004 
1.530402e-004 
1.528955e-004 
1.528322e-004 
1.528886e-004 
1.527532e-004 
1.525065e-004 
1.524330e-004 
1.523339e-004 
1.519947e-004 
1.517017e-004 
1.515569e-004 
1.512284e-004 
1.507463e-004 
1.504348e-004 
1.501349e-004 
1.495897e-004 
1.490680e-004 
1.487226e-004 
1.482323e-004 
1.475879e-004 
1.471210e-004 
1.467163e-004 
1.461121e-004 
1.455457e-004 
1.451881e-004 
1.447564e-004 
1.442244e-004 
1.438925e-004 
1.436772e-004 
1.433486e-004 
1.431016e-004 
1.430853e-004 
1.430698e-004 
1.430297e-004 
1.432000e-004 
1.435121e-004 
1.437877e-004 
1.441702e-004 
1.447595e-004 
1.453813e-004 
1.460161e-004 
1.468191e-004 
1.477295e-004 
1.486224e-004 
1.495884e-004 
1.506798e-004 
1.517751e-004 
1.528590e-004 
1.540213e-004 
1.552149e-004 
1.563592e-004 
1.575069e-004 
1.586842e-004 
1.598149e-004 
1.608894e-004 
1.619606e-004 
1.630002e-004 
1.639614e-004 
1.648768e-004 
1.657649e-004 
1.665838e-004 
1.673295e-004 
1.680366e-004 
1.686939e-004 
1.692766e-004 
1.698045e-004 
1.702938e-004 
1.707255e-004 
1.710957e-004 
1.714251e-004 
1.717142e-004 
1.719500e-004 
1.721367e-004 
1.722880e-004 
1.723983e-004 
1.724584e-004 
1.724699e-004 
1.724416e-004 
1.723618e-004 
1.722324e-004 
1.720489e-004 
1.717927e-004 
1.000000e+000 
1.000000e+000 
1.476466e-004 
1.478031e-004 
1.479546e-004 
1.480611e-004 
1.481789e-004 
1.483278e-004 
1.484412e-004 
1.485286e-004 
1.486545e-004 
1.487880e-004 
1.488743e-004 
1.489701e-004 
1.491101e-004 
1.492269e-004 
1.493108e-004 
1.494378e-004 
1.495888e-004 
1.496959e-004 
1.498043e-004 
1.499676e-004 
1.501187e-004 
1.502296e-004 
1.503780e-004 
1.505628e-004 
1.507044e-004 
1.508335e-004 
1.510171e-004 
1.511979e-004 
1.513281e-004 
1.514815e-004 
1.516763e-004 
1.518305e-004 
1.519534e-004 
1.521207e-004 
1.522941e-004 
1.524098e-004 
1.525247e-004 
1.526796e-004 
1.528025e-004 
1.528738e-004 
1.529666e-004 
1.530750e-004 
1.531257e-004 
1.531416e-004 
1.531851e-004 
1.532136e-004 
1.531712e-004 
1.531108e-004 
1.530735e-004 
1.529904e-004 
1.528300e-004 
1.526713e-004 
1.525253e-004 
1.522986e-004 
1.520026e-004 
1.517377e-004 
1.514598e-004 
1.510692e-004 
1.506510e-004 
1.502922e-004 
1.498698e-004 
1.493372e-004 
1.488576e-004 
1.484307e-004 
1.478862e-004 
1.473055e-004 
1.468578e-004 
1.464018e-004 
1.458293e-004 
1.453573e-004 
1.450306e-004 
1.446189e-004 
1.441938e-004 
1.439879e-004 
1.438456e-004 
1.436109e-004 
1.435309e-004 
1.436740e-004 
1.437705e-004 
1.438808e-004 
1.442597e-004 
1.447390e-004 
1.451395e-004 
1.457069e-004 
1.465054e-004 
1.472560e-004 
1.480070e-004 
1.489959e-004 
1.500542e-004 
1.510059e-004 
1.520690e-004 
1.532959e-004 
1.544305e-004 
1.555088e-004 
1.567353e-004 
1.579652e-004 
1.590422e-004 
1.601479e-004 
1.613342e-004 
1.623897e-004 
1.633365e-004 
1.643516e-004 
1.653299e-004 
1.661384e-004 
1.669224e-004 
1.677447e-004 
1.684399e-004 
1.690139e-004 
1.696204e-004 
1.701963e-004 
1.706229e-004 
1.710110e-004 
1.714332e-004 
1.717626e-004 
1.719811e-004 
1.722237e-004 
1.724568e-004 
1.725699e-004 
1.726350e-004 
1.727354e-004 
1.727643e-004 
1.726868e-004 
1.726057e-004 
1.725100e-004 
1.722792e-004 
1.719902e-004 
1.000000e+000 
1.000000e+000 
1.475163e-004 
1.476411e-004 
1.478015e-004 
1.479846e-004 
1.480964e-004 
1.481991e-004 
1.483631e-004 
1.484943e-004 
1.485601e-004 
1.486803e-004 
1.488383e-004 
1.489176e-004 
1.489887e-004 
1.491500e-004 
1.492842e-004 
1.493399e-004 
1.494663e-004 
1.496570e-004 
1.497550e-004 
1.498358e-004 
1.500353e-004 
1.502163e-004 
1.502903e-004 
1.504410e-004 
1.506852e-004 
1.508194e-004 
1.509085e-004 
1.511409e-004 
1.513684e-004 
1.514509e-004 
1.516000e-004 
1.518759e-004 
1.520286e-004 
1.520943e-004 
1.523182e-004 
1.525613e-004 
1.526203e-004 
1.527194e-004 
1.529777e-004 
1.531112e-004 
1.531066e-004 
1.532600e-004 
1.534633e-004 
1.534504e-004 
1.534343e-004 
1.535991e-004 
1.536489e-004 
1.535088e-004 
1.535055e-004 
1.535799e-004 
1.534203e-004 
1.532061e-004 
1.531756e-004 
1.530493e-004 
1.526981e-004 
1.524500e-004 
1.522996e-004 
1.519241e-004 
1.514605e-004 
1.511719e-004 
1.508209e-004 
1.502541e-004 
1.497712e-004 
1.494049e-004 
1.488652e-004 
1.482536e-004 
1.478165e-004 
1.473703e-004 
1.467788e-004 
1.462886e-004 
1.459394e-004 
1.455083e-004 
1.450749e-004 
1.448264e-004 
1.446296e-004 
1.443957e-004 
1.442986e-004 
1.443544e-004 
1.444204e-004 
1.445583e-004 
1.448694e-004 
1.452617e-004 
1.456976e-004 
1.462685e-004 
1.469572e-004 
1.476924e-004 
1.485131e-004 
1.494402e-004 
1.504162e-004 
1.514390e-004 
1.525323e-004 
1.536586e-004 
1.547987e-004 
1.559721e-004 
1.571532e-004 
1.583136e-004 
1.594726e-004 
1.606203e-004 
1.617178e-004 
1.627788e-004 
1.638170e-004 
1.647943e-004 
1.657029e-004 
1.665768e-004 
1.673982e-004 
1.681361e-004 
1.688203e-004 
1.694680e-004 
1.700405e-004 
1.705424e-004 
1.710130e-004 
1.714351e-004 
1.717810e-004 
1.720881e-004 
1.723701e-004 
1.725902e-004 
1.727537e-004 
1.729013e-004 
1.730070e-004 
1.730472e-004 
1.730524e-004 
1.730318e-004 
1.729385e-004 
1.727922e-004 
1.726197e-004 
1.723637e-004 
1.000000e+000 
1.000000e+000 
1.473449e-004 
1.475268e-004 
1.476825e-004 
1.478598e-004 
1.480282e-004 
1.481468e-004 
1.482650e-004 
1.484162e-004 
1.485370e-004 
1.486197e-004 
1.487370e-004 
1.488769e-004 
1.489675e-004 
1.490531e-004 
1.491957e-004 
1.493299e-004 
1.494143e-004 
1.495369e-004 
1.497098e-004 
1.498376e-004 
1.499422e-004 
1.501175e-004 
1.503054e-004 
1.504288e-004 
1.505755e-004 
1.507945e-004 
1.509743e-004 
1.511034e-004 
1.513007e-004 
1.515345e-004 
1.516900e-004 
1.518398e-004 
1.520758e-004 
1.522883e-004 
1.524174e-004 
1.525969e-004 
1.528401e-004 
1.530002e-004 
1.531113e-004 
1.533129e-004 
1.535176e-004 
1.536058e-004 
1.537065e-004 
1.538982e-004 
1.540127e-004 
1.540205e-004 
1.541054e-004 
1.542299e-004 
1.542060e-004 
1.541344e-004 
1.541748e-004 
1.541573e-004 
1.539671e-004 
1.538227e-004 
1.537628e-004 
1.535360e-004 
1.531919e-004 
1.529785e-004 
1.527485e-004 
1.522954e-004 
1.518581e-004 
1.515663e-004 
1.511225e-004 
1.505165e-004 
1.500747e-004 
1.496880e-004 
1.490738e-004 
1.484778e-004 
1.481081e-004 
1.476434e-004 
1.470250e-004 
1.466279e-004 
1.463741e-004 
1.459383e-004 
1.455613e-004 
1.454875e-004 
1.453897e-004 
1.451852e-004 
1.452521e-004 
1.455200e-004 
1.456593e-004 
1.458927e-004 
1.464480e-004 
1.470095e-004 
1.474939e-004 
1.482361e-004 
1.491584e-004 
1.499618e-004 
1.508352e-004 
1.519606e-004 
1.530582e-004 
1.540546e-004 
1.552199e-004 
1.564812e-004 
1.575905e-004 
1.586962e-004 
1.599421e-004 
1.611054e-004 
1.621234e-004 
1.632097e-004 
1.643165e-004 
1.652495e-004 
1.661194e-004 
1.670522e-004 
1.678864e-004 
1.685644e-004 
1.692561e-004 
1.699483e-004 
1.704879e-004 
1.709500e-004 
1.714519e-004 
1.718843e-004 
1.721826e-004 
1.724811e-004 
1.727942e-004 
1.729969e-004 
1.731239e-004 
1.732874e-004 
1.734121e-004 
1.734216e-004 
1.734115e-004 
1.734239e-004 
1.733401e-004 
1.731520e-004 
1.729596e-004 
1.727517e-004 
1.000000e+000 
1.000000e+000 
1.471612e-004 
1.474236e-004 
1.476180e-004 
1.477477e-004 
1.479319e-004 
1.481241e-004 
1.482226e-004 
1.483250e-004 
1.484982e-004 
1.486179e-004 
1.486716e-004 
1.488022e-004 
1.489634e-004 
1.490302e-004 
1.491082e-004 
1.492888e-004 
1.494220e-004 
1.494795e-004 
1.496331e-004 
1.498416e-004 
1.499408e-004 
1.500456e-004 
1.502808e-004 
1.504725e-004 
1.505612e-004 
1.507556e-004 
1.510297e-004 
1.511741e-004 
1.513017e-004 
1.515848e-004 
1.518320e-004 
1.519406e-004 
1.521512e-004 
1.524708e-004 
1.526439e-004 
1.527659e-004 
1.530604e-004 
1.533361e-004 
1.534368e-004 
1.536201e-004 
1.539391e-004 
1.541054e-004 
1.541768e-004 
1.544197e-004 
1.546639e-004 
1.547033e-004 
1.547865e-004 
1.550157e-004 
1.550952e-004 
1.550351e-004 
1.551189e-004 
1.552167e-004 
1.550957e-004 
1.549705e-004 
1.549765e-004 
1.548464e-004 
1.545536e-004 
1.543620e-004 
1.541880e-004 
1.538160e-004 
1.534136e-004 
1.531155e-004 
1.527161e-004 
1.521842e-004 
1.517274e-004 
1.512968e-004 
1.507422e-004 
1.501847e-004 
1.497172e-004 
1.492145e-004 
1.486742e-004 
1.482193e-004 
1.478152e-004 
1.474051e-004 
1.470653e-004 
1.468164e-004 
1.466129e-004 
1.464916e-004 
1.464759e-004 
1.465303e-004 
1.466866e-004 
1.469697e-004 
1.473238e-004 
1.477679e-004 
1.483597e-004 
1.490316e-004 
1.497470e-004 
1.505936e-004 
1.515465e-004 
1.525003e-004 
1.535148e-004 
1.546476e-004 
1.557790e-004 
1.568791e-004 
1.580580e-004 
1.592659e-004 
1.603863e-004 
1.614968e-004 
1.626546e-004 
1.637342e-004 
1.647148e-004 
1.657120e-004 
1.666817e-004 
1.675184e-004 
1.683013e-004 
1.690941e-004 
1.697890e-004 
1.703689e-004 
1.709460e-004 
1.714938e-004 
1.719178e-004 
1.722890e-004 
1.726749e-004 
1.729858e-004 
1.731982e-004 
1.734169e-004 
1.736239e-004 
1.737308e-004 
1.737924e-004 
1.738769e-004 
1.738960e-004 
1.738185e-004 
1.737370e-004 
1.736466e-004 
1.734447e-004 
1.731596e-004 
1.000000e+000 
1.000000e+000 
1.470549e-004 
1.472826e-004 
1.475263e-004 
1.477268e-004 
1.478738e-004 
1.480421e-004 
1.482174e-004 
1.483293e-004 
1.484282e-004 
1.485805e-004 