# vtk DataFile Version 2.0
2D-ADE data file 
ASCII
DATASET RECTILINEAR_GRID
DIMENSIONS 128 128 1
X_COORDINATES 128 int
0 1 2 3 4 5 6 7 8 9 10 11 12 13 14 15 16 17 18 19 20 21 22 23 24 25 26 27 28 29 30 31 32 33 34 35 36 37 38 39 40 41 42 43 44 45 46 47 48 49 50 51 52 53 54 55 56 57 58 59 60 61 62 63 64 65 66 67 68 69 70 71 72 73 74 75 76 77 78 79 80 81 82 83 84 85 86 87 88 89 90 91 92 93 94 95 96 97 98 99 100 101 102 103 104 105 106 107 108 109 110 111 112 113 114 115 116 117 118 119 120 121 122 123 124 125 126 127 
Y_COORDINATES 128 int
0 1 2 3 4 5 6 7 8 9 10 11 12 13 14 15 16 17 18 19 20 21 22 23 24 25 26 27 28 29 30 31 32 33 34 35 36 37 38 39 40 41 42 43 44 45 46 47 48 49 50 51 52 53 54 55 56 57 58 59 60 61 62 63 64 65 66 67 68 69 70 71 72 73 74 75 76 77 78 79 80 81 82 83 84 85 86 87 88 89 90 91 92 93 94 95 96 97 98 99 100 101 102 103 104 105 106 107 108 109 110 111 112 113 114 115 116 117 118 119 120 121 122 123 124 125 126 127 
Z_COORDINATES 1 int
0
POINT_DATA 16384 
SCALARS density double 1
LOOKUP_TABLE default
1.000000e+000 
1.000000e+000 
1.000000e+000 
1.000000e+000 
1.000000e+000 
1.000000e+000 
1.000000e+000 
1.000000e+000 
1.000000e+000 
1.000000e+000 
1.000000e+000 
1.000000e+000 
1.000000e+000 
1.000000e+000 
1.000000e+000 
1.000000e+000 
1.000000e+000 
1.000000e+000 
1.000000e+000 
1.000000e+000 
1.000000e+000 
1.000000e+000 
1.000000e+000 
1.000000e+000 
1.000000e+000 
1.000000e+000 
1.000000e+000 
1.000000e+000 
1.000000e+000 
1.000000e+000 
1.000000e+000 
1.000000e+000 
1.000000e+000 
1.000000e+000 
1.000000e+000 
1.000000e+000 
1.000000e+000 
1.000000e+000 
1.000000e+000 
1.000000e+000 
1.000000e+000 
1.000000e+000 
1.000000e+000 
1.000000e+000 
1.000000e+000 
1.000000e+000 
1.000000e+000 
1.000000e+000 
1.000000e+000 
1.000000e+000 
1.000000e+000 
1.000000e+000 
1.000000e+000 
1.000000e+000 
1.000000e+000 
1.000000e+000 
1.000000e+000 
1.000000e+000 
1.000000e+000 
1.000000e+000 
1.000000e+000 
1.000000e+000 
1.000000e+000 
1.000000e+000 
1.000000e+000 
1.000000e+000 
1.000000e+000 
1.000000e+000 
1.000000e+000 
1.000000e+000 
1.000000e+000 
1.000000e+000 
1.000000e+000 
1.000000e+000 
1.000000e+000 
1.000000e+000 
1.000000e+000 
1.000000e+000 
1.000000e+000 
1.000000e+000 
1.000000e+000 
1.000000e+000 
1.000000e+000 
1.000000e+000 
1.000000e+000 
1.000000e+000 
1.000000e+000 
1.000000e+000 
1.000000e+000 
1.000000e+000 
1.000000e+000 
1.000000e+000 
1.000000e+000 
1.000000e+000 
1.000000e+000 
1.000000e+000 
1.000000e+000 
1.000000e+000 
1.000000e+000 
1.000000e+000 
1.000000e+000 
1.000000e+000 
1.000000e+000 
1.000000e+000 
1.000000e+000 
1.000000e+000 
1.000000e+000 
1.000000e+000 
1.000000e+000 
1.000000e+000 
1.000000e+000 
1.000000e+000 
1.000000e+000 
1.000000e+000 
1.000000e+000 
1.000000e+000 
1.000000e+000 
1.000000e+000 
1.000000e+000 
1.000000e+000 
1.000000e+000 
1.000000e+000 
1.000000e+000 
1.000000e+000 
1.000000e+000 
1.000000e+000 
1.000000e+000 
1.000000e+000 
1.000000e+000 
1.504280e-004 
1.504018e-004 
1.504299e-004 
1.505108e-004 
1.505876e-004 
1.506869e-004 
1.508454e-004 
1.509763e-004 
1.510945e-004 
1.512414e-004 
1.514153e-004 
1.515228e-004 
1.516487e-004 
1.518080e-004 
1.519496e-004 
1.520308e-004 
1.521725e-004 
1.523244e-004 
1.524228e-004 
1.525056e-004 
1.526684e-004 
1.527908e-004 
1.528585e-004 
1.529698e-004 
1.531341e-004 
1.532083e-004 
1.532712e-004 
1.534124e-004 
1.535377e-004 
1.535614e-004 
1.536414e-004 
1.537788e-004 
1.538245e-004 
1.538147e-004 
1.539085e-004 
1.539822e-004 
1.539310e-004 
1.539090e-004 
1.539748e-004 
1.539258e-004 
1.537913e-004 
1.537567e-004 
1.537234e-004 
1.535241e-004 
1.533357e-004 
1.532489e-004 
1.530479e-004 
1.527166e-004 
1.524897e-004 
1.522802e-004 
1.518860e-004 
1.514734e-004 
1.511869e-004 
1.507930e-004 
1.502456e-004 
1.498003e-004 
1.494057e-004 
1.488246e-004 
1.482154e-004 
1.477554e-004 
1.472221e-004 
1.465361e-004 
1.459643e-004 
1.454839e-004 
1.448525e-004 
1.442049e-004 
1.437381e-004 
1.432509e-004 
1.426495e-004 
1.421833e-004 
1.418549e-004 
1.414365e-004 
1.410353e-004 
1.408393e-004 
1.406807e-004 
1.404630e-004 
1.403956e-004 
1.404936e-004 
1.405600e-004 
1.406696e-004 
1.409779e-004 
1.413554e-004 
1.417081e-004 
1.421949e-004 
1.428301e-004 
1.434585e-004 
1.441170e-004 
1.449274e-004 
1.457894e-004 
1.466243e-004 
1.475335e-004 
1.485401e-004 
1.495176e-004 
1.504873e-004 
1.515283e-004 
1.525846e-004 
1.535764e-004 
1.545840e-004 
1.556171e-004 
1.566019e-004 
1.575249e-004 
1.584677e-004 
1.593762e-004 
1.602129e-004 
1.610038e-004 
1.617978e-004 
1.625113e-004 
1.631643e-004 
1.637794e-004 
1.643730e-004 
1.648651e-004 
1.653230e-004 
1.657347e-004 
1.661069e-004 
1.663760e-004 
1.666350e-004 
1.668275e-004 
1.669758e-004 
1.670292e-004 
1.670883e-004 
1.670665e-004 
1.670131e-004 
1.668922e-004 
1.668005e-004 
1.667049e-004 
1.666511e-004 
1.000000e+000 
1.000000e+000 
1.504280e-004 
1.504109e-004 
1.504215e-004 
1.505012e-004 
1.505833e-004 
1.506544e-004 
1.507860e-004 
1.509144e-004 
1.510389e-004 
1.511448e-004 
1.513099e-004 
1.514282e-004 
1.515507e-004 
1.516687e-004 
1.518264e-004 
1.519206e-004 
1.520413e-004 
1.521656e-004 
1.523002e-004 
1.523805e-004 
1.525091e-004 
1.526303e-004 
1.527385e-004 
1.528199e-004 
1.529540e-004 
1.530562e-004 
1.531413e-004 
1.532290e-004 
1.533496e-004 
1.534175e-004 
1.534832e-004 
1.535640e-004 
1.536432e-004 
1.536672e-004 
1.537083e-004 
1.537530e-004 
1.537654e-004 
1.537388e-004 
1.537352e-004 
1.537088e-004 
1.536385e-004 
1.535489e-004 
1.534693e-004 
1.533448e-004 
1.531814e-004 
1.530074e-004 
1.528230e-004 
1.525866e-004 
1.523193e-004 
1.520395e-004 
1.517374e-004 
1.513848e-004 
1.510047e-004 
1.506145e-004 
1.502003e-004 
1.497350e-004 
1.492515e-004 
1.487735e-004 
1.482663e-004 
1.477101e-004 
1.471676e-004 
1.466454e-004 
1.460791e-004 
1.454921e-004 
1.449672e-004 
1.444534e-004 
1.438919e-004 
1.433774e-004 
1.429536e-004 
1.425093e-004 
1.420593e-004 
1.417345e-004 
1.414771e-004 
1.411848e-004 
1.409764e-004 
1.409233e-004 
1.408779e-004 
1.408409e-004 
1.409712e-004 
1.412087e-004 
1.414154e-004 
1.417192e-004 
1.422000e-004 
1.426973e-004 
1.431881e-004 
1.438444e-004 
1.445982e-004 
1.453070e-004 
1.460751e-004 
1.469981e-004 
1.479042e-004 
1.487720e-004 
1.497440e-004 
1.507844e-004 
1.517308e-004 
1.526925e-004 
1.537373e-004 
1.547461e-004 
1.556538e-004 
1.566235e-004 
1.575972e-004 
1.584750e-004 
1.592918e-004 
1.601737e-004 
1.609682e-004 
1.616747e-004 
1.623597e-004 
1.630721e-004 
1.636378e-004 
1.641708e-004 
1.646857e-004 
1.651801e-004 
1.655154e-004 
1.658820e-004 
1.661924e-004 
1.664553e-004 
1.665817e-004 
1.667809e-004 
1.668671e-004 
1.669151e-004 
1.668697e-004 
1.669069e-004 
1.668056e-004 
1.667127e-004 
1.666535e-004 
1.666424e-004 
1.000000e+000 
1.000000e+000 
1.503768e-004 
1.504080e-004 
1.504209e-004 
1.504447e-004 
1.505355e-004 
1.506464e-004 
1.507188e-004 
1.508217e-004 
1.509754e-004 
1.510870e-004 
1.511768e-004 
1.513211e-004 
1.514712e-004 
1.515534e-004 
1.516626e-004 
1.518232e-004 
1.519354e-004 
1.520029e-004 
1.521439e-004 
1.522919e-004 
1.523608e-004 
1.524458e-004 
1.526107e-004 
1.527152e-004 
1.527599e-004 
1.528828e-004 
1.530347e-004 
1.530784e-004 
1.531300e-004 
1.532769e-004 
1.533659e-004 
1.533578e-004 
1.534346e-004 
1.535541e-004 
1.535452e-004 
1.535135e-004 
1.535975e-004 
1.536221e-004 
1.535153e-004 
1.534817e-004 
1.535135e-004 
1.533944e-004 
1.532210e-004 
1.531714e-004 
1.530736e-004 
1.528087e-004 
1.526020e-004 
1.524793e-004 
1.521999e-004 
1.518323e-004 
1.515946e-004 
1.513260e-004 
1.508735e-004 
1.504613e-004 
1.501546e-004 
1.497029e-004 
1.491482e-004 
1.487260e-004 
1.483039e-004 
1.477084e-004 
1.471494e-004 
1.467177e-004 
1.461805e-004 
1.455545e-004 
1.450699e-004 
1.446264e-004 
1.440570e-004 
1.435390e-004 
1.431717e-004 
1.427592e-004 
1.423029e-004 
1.419990e-004 
1.417786e-004 
1.415008e-004 
1.412989e-004 
1.412586e-004 
1.412326e-004 
1.412123e-004 
1.413405e-004 
1.415726e-004 
1.418020e-004 
1.421135e-004 
1.425659e-004 
1.430597e-004 
1.435779e-004 
1.442084e-004 
1.449220e-004 
1.456465e-004 
1.464220e-004 
1.472841e-004 
1.481695e-004 
1.490606e-004 
1.499993e-004 
1.509727e-004 
1.519319e-004 
1.528943e-004 
1.538747e-004 
1.548441e-004 
1.557817e-004 
1.567114e-004 
1.576238e-004 
1.584992e-004 
1.593340e-004 
1.601455e-004 
1.609143e-004 
1.616368e-004 
1.623122e-004 
1.629526e-004 
1.635381e-004 
1.640762e-004 
1.645623e-004 
1.650096e-004 
1.653971e-004 
1.657390e-004 
1.660273e-004 
1.662785e-004 
1.664670e-004 
1.666141e-004 
1.667131e-004 
1.667782e-004 
1.667848e-004 
1.667657e-004 
1.667271e-004 
1.666613e-004 
1.665797e-004 
1.665217e-004 
1.000000e+000 
1.000000e+000 
1.503183e-004 
1.503243e-004 
1.503675e-004 
1.504124e-004 
1.504718e-004 
1.505743e-004 
1.506694e-004 
1.507625e-004 
1.508700e-004 
1.510027e-004 
1.511056e-004 
1.512130e-004 
1.513366e-004 
1.514651e-004 
1.515595e-004 
1.516733e-004 
1.517994e-004 
1.519120e-004 
1.520014e-004 
1.521227e-004 
1.522424e-004 
1.523381e-004 
1.524302e-004 
1.525547e-004 
1.526575e-004 
1.527380e-004 
1.528336e-004 
1.529470e-004 
1.530214e-004 
1.530863e-004 
1.531748e-004 
1.532555e-004 
1.532901e-004 
1.533333e-004 
1.533932e-004 
1.534171e-004 
1.534017e-004 
1.534096e-004 
1.534121e-004 
1.533570e-004 
1.532821e-004 
1.532342e-004 
1.531480e-004 
1.529978e-004 
1.528552e-004 
1.527257e-004 
1.525227e-004 
1.522727e-004 
1.520555e-004 
1.518157e-004 
1.514818e-004 
1.511436e-004 
1.508436e-004 
1.504707e-004 
1.500200e-004 
1.496193e-004 
1.492259e-004 
1.487228e-004 
1.482064e-004 
1.477724e-004 
1.472840e-004 
1.467023e-004 
1.461983e-004 
1.457543e-004 
1.452052e-004 
1.446506e-004 
1.442355e-004 
1.438078e-004 
1.432921e-004 
1.428936e-004 
1.426173e-004 
1.422626e-004 
1.419230e-004 
1.417778e-004 
1.416672e-004 
1.414880e-004 
1.414571e-004 
1.415938e-004 
1.416796e-004 
1.417936e-004 
1.421240e-004 
1.425124e-004 
1.428412e-004 
1.433126e-004 
1.439530e-004 
1.445450e-004 
1.451490e-004 
1.459380e-004 
1.467716e-004 
1.475257e-004 
1.483769e-004 
1.493516e-004 
1.502583e-004 
1.511303e-004 
1.521259e-004 
1.531260e-004 
1.540200e-004 
1.549436e-004 
1.559403e-004 
1.568410e-004 
1.576707e-004 
1.585565e-004 
1.594259e-004 
1.601651e-004 
1.608949e-004 
1.616517e-004 
1.623197e-004 
1.628852e-004 
1.634818e-004 
1.640431e-004 
1.644934e-004 
1.648940e-004 
1.653249e-004 
1.656616e-004 
1.659140e-004 
1.661561e-004 
1.663973e-004 
1.665147e-004 
1.666018e-004 
1.666889e-004 
1.667401e-004 
1.666773e-004 
1.666452e-004 
1.666149e-004 
1.665316e-004 
1.663915e-004 
1.000000e+000 
1.000000e+000 
1.502442e-004 
1.502311e-004 
1.502742e-004 
1.503657e-004 
1.504182e-004 
1.504771e-004 
1.505977e-004 
1.507134e-004 
1.507773e-004 
1.508888e-004 
1.510341e-004 
1.511273e-004 
1.512027e-004 
1.513496e-004 
1.514765e-004 
1.515429e-004 
1.516483e-004 
1.518068e-004 
1.518928e-004 
1.519581e-004 
1.521015e-004 
1.522374e-004 
1.522855e-004 
1.523804e-004 
1.525398e-004 
1.526221e-004 
1.526576e-004 
1.527902e-004 
1.529184e-004 
1.529381e-004 
1.529903e-004 
1.531303e-004 
1.531787e-004 
1.531549e-004 
1.532301e-004 
1.533161e-004 
1.532633e-004 
1.532260e-004 
1.532891e-004 
1.532589e-004 
1.531207e-004 
1.530800e-004 
1.530622e-004 
1.528873e-004 
1.526999e-004 
1.526239e-004 
1.524580e-004 
1.521586e-004 
1.519433e-004 
1.517676e-004 
1.514293e-004 
1.510564e-004 
1.507967e-004 
1.504651e-004 
1.499919e-004 
1.495904e-004 
1.492439e-004 
1.487562e-004 
1.482277e-004 
1.478125e-004 
1.473574e-004 
1.467863e-004 
1.462831e-004 
1.458539e-004 
1.453341e-004 
1.447963e-004 
1.443739e-004 
1.439580e-004 
1.434849e-004 
1.430908e-004 
1.427898e-004 
1.424691e-004 
1.421745e-004 
1.419962e-004 
1.418703e-004 
1.417574e-004 
1.417346e-004 
1.418105e-004 
1.419279e-004 
1.421067e-004 
1.423845e-004 
1.427338e-004 
1.431397e-004 
1.436214e-004 
1.441768e-004 
1.447924e-004 
1.454678e-004 
1.461948e-004 
1.469718e-004 
1.477999e-004 
1.486605e-004 
1.495402e-004 
1.504565e-004 
1.513963e-004 
1.523284e-004 
1.532621e-004 
1.542155e-004 
1.551493e-004 
1.560504e-004 
1.569477e-004 
1.578349e-004 
1.586664e-004 
1.594645e-004 
1.602502e-004 
1.609917e-004 
1.616658e-004 
1.623184e-004 
1.629389e-004 
1.634935e-004 
1.639920e-004 
1.644765e-004 
1.649031e-004 
1.652646e-004 
1.655898e-004 
1.658943e-004 
1.661217e-004 
1.663053e-004 
1.664648e-004 
1.665869e-004 
1.666308e-004 
1.666627e-004 
1.666726e-004 
1.666337e-004 
1.665404e-004 
1.664301e-004 
1.663107e-004 
1.000000e+000 
1.000000e+000 
1.501042e-004 
1.501533e-004 
1.501879e-004 
1.502519e-004 
1.503454e-004 
1.504264e-004 
1.505024e-004 
1.506108e-004 
1.507240e-004 
1.508091e-004 
1.509065e-004 
1.510334e-004 
1.511382e-004 
1.512195e-004 
1.513355e-004 
1.514626e-004 
1.515485e-004 
1.516366e-004 
1.517692e-004 
1.518807e-004 
1.519524e-004 
1.520601e-004 
1.521960e-004 
1.522791e-004 
1.523498e-004 
1.524765e-004 
1.525904e-004 
1.526411e-004 
1.527216e-004 
1.528464e-004 
1.529106e-004 
1.529346e-004 
1.530217e-004 
1.531068e-004 
1.531035e-004 
1.531099e-004 
1.531790e-004 
1.531822e-004 
1.531104e-004 
1.530998e-004 
1.531059e-004 
1.529976e-004 
1.528700e-004 
1.528227e-004 
1.527142e-004 
1.524906e-004 
1.523209e-004 
1.521945e-004 
1.519353e-004 
1.516213e-004 
1.514079e-004 
1.511508e-004 
1.507434e-004 
1.503804e-004 
1.500981e-004 
1.496796e-004 
1.491765e-004 
1.487988e-004 
1.484128e-004 
1.478587e-004 
1.473476e-004 
1.469661e-004 
1.464691e-004 
1.458771e-004 
1.454444e-004 
1.450554e-004 
1.445102e-004 
1.440225e-004 
1.437191e-004 
1.433434e-004 
1.428894e-004 
1.426309e-004 
1.424714e-004 
1.421913e-004 
1.419921e-004 
1.420166e-004 
1.420152e-004 
1.419626e-004 
1.421211e-004 
1.424090e-004 
1.426095e-004 
1.428958e-004 
1.434028e-004 
1.439041e-004 
1.443615e-004 
1.450016e-004 
1.457561e-004 
1.464285e-004 
1.471541e-004 
1.480496e-004 
1.489235e-004 
1.497315e-004 
1.506557e-004 
1.516471e-004 
1.525381e-004 
1.534287e-004 
1.544184e-004 
1.553592e-004 
1.562031e-004 
1.570959e-004 
1.580103e-004 
1.588117e-004 
1.595680e-004 
1.603714e-004 
1.611127e-004 
1.617451e-004 
1.623816e-004 
1.630209e-004 
1.635519e-004 
1.640201e-004 
1.645073e-004 
1.649434e-004 
1.652734e-004 
1.655894e-004 
1.659046e-004 
1.661341e-004 
1.662911e-004 
1.664606e-004 
1.665935e-004 
1.666376e-004 
1.666510e-004 
1.666750e-004 
1.666243e-004 
1.665210e-004 
1.664224e-004 
1.662795e-004 
1.000000e+000 
1.000000e+000 
1.499424e-004 
1.500328e-004 
1.501042e-004 
1.501485e-004 
1.502429e-004 
1.503613e-004 
1.504293e-004 
1.505056e-004 
1.506390e-004 
1.507440e-004 
1.508064e-004 
1.509178e-004 
1.510552e-004 
1.511296e-004 
1.512061e-004 
1.513464e-004 
1.514591e-004 
1.515156e-004 
1.516273e-004 
1.517732e-004 
1.518484e-004 
1.519160e-004 
1.520619e-004 
1.521798e-004 
1.522264e-004 
1.523274e-004 
1.524767e-004 
1.525411e-004 
1.525837e-004 
1.527127e-004 
1.528173e-004 
1.528269e-004 
1.528853e-004 
1.530018e-004 
1.530229e-004 
1.529981e-004 
1.530638e-004 
1.531086e-004 
1.530375e-004 
1.529987e-004 
1.530266e-004 
1.529529e-004 
1.528098e-004 
1.527501e-004 
1.526775e-004 
1.524755e-004 
1.522857e-004 
1.521633e-004 
1.519455e-004 
1.516420e-004 
1.514073e-004 
1.511685e-004 
1.508067e-004 
1.504397e-004 
1.501346e-004 
1.497549e-004 
1.492955e-004 
1.488879e-004 
1.484888e-004 
1.480011e-004 
1.475080e-004 
1.470693e-004 
1.465968e-004 
1.460825e-004 
1.456126e-004 
1.451703e-004 
1.447046e-004 
1.442584e-004 
1.438639e-004 
1.434921e-004 
1.431444e-004 
1.428452e-004 
1.425961e-004 
1.424026e-004 
1.422652e-004 
1.421763e-004 
1.421622e-004 
1.422350e-004 
1.423553e-004 
1.425339e-004 
1.428228e-004 
1.431846e-004 
1.435733e-004 
1.440532e-004 
1.446416e-004 
1.452509e-004 
1.458931e-004 
1.466476e-004 
1.474522e-004 
1.482371e-004 
1.490831e-004 
1.500114e-004 
1.509121e-004 
1.517955e-004 
1.527507e-004 
1.537133e-004 
1.546041e-004 
1.555072e-004 
1.564490e-004 
1.573239e-004 
1.581355e-004 
1.589774e-004 
1.597947e-004 
1.605134e-004 
1.612069e-004 
1.619149e-004 
1.625413e-004 
1.630877e-004 
1.636393e-004 
1.641638e-004 
1.645851e-004 
1.649715e-004 
1.653629e-004 
1.656853e-004 
1.659226e-004 
1.661637e-004 
1.663809e-004 
1.665101e-004 
1.665944e-004 
1.666926e-004 
1.667269e-004 
1.666910e-004 
1.666444e-004 
1.665761e-004 
1.664065e-004 
1.662119e-004 
1.000000e+000 
1.000000e+000 
1.498197e-004 
1.498796e-004 
1.499771e-004 
1.500803e-004 
1.501491e-004 
1.502389e-004 
1.503619e-004 
1.504539e-004 
1.505237e-004 
1.506398e-004 
1.507600e-004 
1.508292e-004 
1.509145e-004 
1.510498e-004 
1.511463e-004 
1.512056e-004 
1.513231e-004 
1.514589e-004 
1.515249e-004 
1.516014e-004 
1.517502e-004 
1.518597e-004 
1.519073e-004 
1.520219e-004 
1.521749e-004 
1.522383e-004 
1.522923e-004 
1.524408e-004 
1.525544e-004 
1.525723e-004 
1.526539e-004 
1.527990e-004 
1.528356e-004 
1.528295e-004 
1.529343e-004 
1.530173e-004 
1.529656e-004 
1.529609e-004 
1.530480e-004 
1.530149e-004 
1.528951e-004 
1.528953e-004 
1.528964e-004 
1.527256e-004 
1.525732e-004 
1.525425e-004 
1.523916e-004 
1.521062e-004 
1.519421e-004 
1.518114e-004 
1.514820e-004 
1.511368e-004 
1.509429e-004 
1.506449e-004 
1.501734e-004 
1.498211e-004 
1.495438e-004 
1.490624e-004 
1.485394e-004 
1.481984e-004 
1.477890e-004 
1.471937e-004 
1.467220e-004 
1.463742e-004 
1.458488e-004 
1.452812e-004 
1.449283e-004 
1.445604e-004 
1.440317e-004 
1.436440e-004 
1.434276e-004 
1.430874e-004 
1.427318e-004 
1.426158e-004 
1.425382e-004 
1.423498e-004 
1.423183e-004 
1.424818e-004 
1.425758e-004 
1.426825e-004 
1.430215e-004 
1.434233e-004 
1.437531e-004 
1.442248e-004 
1.448689e-004 
1.454664e-004 
1.460729e-004 
1.468577e-004 
1.476857e-004 
1.484443e-004 
1.492901e-004 
1.502461e-004 
1.511424e-004 
1.520123e-004 
1.529808e-004 
1.539503e-004 
1.548301e-004 
1.557319e-004 
1.566787e-004 
1.575464e-004 
1.583514e-004 
1.591907e-004 
1.600008e-004 
1.607106e-004 
1.613989e-004 
1.620956e-004 
1.627120e-004 
1.632526e-004 
1.637944e-004 
1.643040e-004 
1.647218e-004 
1.651020e-004 
1.654796e-004 
1.657944e-004 
1.660356e-004 
1.662658e-004 
1.664732e-004 
1.666065e-004 
1.666937e-004 
1.667784e-004 
1.668136e-004 
1.667751e-004 
1.667121e-004 
1.666402e-004 
1.664993e-004 
1.662738e-004 
1.000000e+000 
1.000000e+000 
1.496737e-004 
1.497473e-004 
1.498426e-004 
1.499773e-004 
1.500751e-004 
1.501459e-004 
1.502612e-004 
1.503859e-004 
1.504570e-004 
1.505401e-004 
1.506687e-004 
1.507661e-004 
1.508265e-004 
1.509354e-004 
1.510607e-004 
1.511316e-004 
1.512083e-004 
1.513418e-004 
1.514469e-004 
1.515090e-004 
1.516195e-004 
1.517575e-004 
1.518348e-004 
1.519110e-004 
1.520491e-004 
1.521624e-004 
1.522191e-004 
1.523213e-004 
1.524561e-004 
1.525240e-004 
1.525758e-004 
1.526908e-004 
1.527815e-004 
1.528021e-004 
1.528561e-004 
1.529456e-004 
1.529628e-004 
1.529468e-004 
1.529859e-004 
1.530036e-004 
1.529404e-004 
1.528923e-004 
1.528764e-004 
1.527908e-004 
1.526558e-004 
1.525583e-004 
1.524436e-004 
1.522493e-004 
1.520470e-004 
1.518660e-004 
1.516301e-004 
1.513391e-004 
1.510588e-004 
1.507683e-004 
1.504199e-004 
1.500451e-004 
1.496748e-004 
1.492823e-004 
1.488511e-004 
1.484041e-004 
1.479608e-004 
1.475108e-004 
1.470333e-004 
1.465478e-004 
1.460942e-004 
1.456486e-004 
1.451743e-004 
1.447301e-004 
1.443565e-004 
1.439779e-004 
1.435907e-004 
1.433032e-004 
1.430884e-004 
1.428465e-004 
1.426664e-004 
1.426346e-004 
1.426252e-004 
1.426095e-004 
1.427457e-004 
1.430008e-004 
1.432252e-004 
1.435229e-004 
1.440043e-004 
1.445097e-004 
1.449915e-004 
1.456276e-004 
1.463786e-004 
1.470709e-004 
1.478076e-004 
1.487029e-004 
1.495888e-004 
1.504088e-004 
1.513356e-004 
1.523330e-004 
1.532302e-004 
1.541179e-004 
1.551068e-004 
1.560466e-004 
1.568787e-004 
1.577582e-004 
1.586652e-004 
1.594477e-004 
1.601780e-004 
1.609635e-004 
1.616854e-004 
1.622831e-004 
1.628915e-004 
1.635108e-004 
1.640114e-004 
1.644431e-004 
1.649113e-004 
1.653266e-004 
1.656254e-004 
1.659193e-004 
1.662284e-004 
1.664382e-004 
1.665772e-004 
1.667453e-004 
1.668769e-004 
1.669004e-004 
1.669089e-004 
1.669351e-004 
1.668709e-004 
1.667164e-004 
1.665628e-004 
1.663938e-004 
1.000000e+000 
1.000000e+000 
1.494858e-004 
1.496440e-004 
1.497486e-004 
1.498362e-004 
1.499752e-004 
1.501030e-004 
1.501721e-004 
1.502710e-004 
1.504102e-004 
1.504936e-004 
1.505509e-004 
1.506769e-004 
1.507970e-004 
1.508445e-004 
1.509283e-004 
1.510771e-004 
1.511598e-004 
1.512039e-004 
1.513381e-004 
1.514808e-004 
1.515257e-004 
1.516064e-004 
1.517798e-004 
1.518796e-004 
1.519112e-004 
1.520503e-004 
1.522169e-004 
1.522555e-004 
1.523119e-004 
1.524912e-004 
1.525934e-004 
1.525862e-004 
1.526913e-004 
1.528520e-004 
1.528539e-004 
1.528406e-004 
1.529769e-004 
1.530438e-004 
1.529529e-004 
1.529661e-004 
1.530681e-004 
1.529893e-004 
1.528498e-004 
1.528795e-004 
1.528593e-004 
1.526357e-004 
1.524936e-004 
1.524759e-004 
1.522694e-004 
1.519533e-004 
1.518155e-004 
1.516585e-004 
1.512666e-004 
1.509274e-004 
1.507445e-004 
1.503858e-004 
1.498821e-004 
1.495586e-004 
1.492555e-004 
1.487165e-004 
1.482111e-004 
1.478908e-004 
1.474335e-004 
1.468308e-004 
1.464130e-004 
1.460623e-004 
1.455163e-004 
1.450120e-004 
1.447176e-004 
1.443475e-004 
1.438747e-004 
1.435979e-004 
1.434306e-004 
1.431403e-004 
1.429210e-004 
1.429206e-004 
1.429059e-004 
1.428495e-004 
1.429870e-004 
1.432490e-004 
1.434543e-004 
1.437463e-004 
1.442279e-004 
1.447234e-004 
1.452115e-004 
1.458519e-004 
1.465864e-004 
1.472877e-004 
1.480489e-004 
1.489287e-004 
1.498053e-004 
1.506625e-004 
1.515970e-004 
1.525649e-004 
1.534833e-004 
1.544081e-004 
1.553715e-004 
1.562962e-004 
1.571715e-004 
1.580555e-004 
1.589215e-004 
1.597194e-004 
1.604834e-004 
1.612354e-004 
1.619312e-004 
1.625642e-004 
1.631718e-004 
1.637432e-004 
1.642494e-004 
1.647099e-004 
1.651432e-004 
1.655276e-004 
1.658565e-004 
1.661519e-004 
1.664150e-004 
1.666291e-004 
1.667983e-004 
1.669379e-004 
1.670418e-004 
1.670982e-004 
1.671110e-004 
1.670907e-004 
1.670249e-004 
1.669124e-004 
1.667543e-004 
1.665367e-004 
1.000000e+000 
1.000000e+000 
1.493259e-004 
1.494893e-004 
1.496469e-004 
1.497561e-004 
1.498717e-004 
1.500160e-004 
1.501245e-004 
1.502031e-004 
1.503169e-004 
1.504380e-004 
1.505108e-004 
1.505882e-004 
1.507084e-004 
1.508059e-004 
1.508668e-004 
1.509661e-004 
1.510903e-004 
1.511696e-004 
1.512441e-004 
1.513713e-004 
1.514880e-004 
1.515601e-004 
1.516638e-004 
1.518051e-004 
1.519028e-004 
1.519810e-004 
1.521107e-004 
1.522404e-004 
1.523153e-004 
1.524062e-004 
1.525397e-004 
1.526335e-004 
1.526883e-004 
1.527837e-004 
1.528883e-004 
1.529319e-004 
1.529669e-004 
1.530423e-004 
1.530877e-004 
1.530749e-004 
1.530794e-004 
1.531030e-004 
1.530678e-004 
1.529920e-004 
1.529453e-004 
1.528877e-004 
1.527568e-004 
1.526074e-004 
1.524873e-004 
1.523249e-004 
1.520861e-004 
1.518551e-004 
1.516452e-004 
1.513593e-004 
1.510108e-004 
1.507042e-004 
1.503932e-004 
1.499774e-004 
1.495456e-004 
1.491840e-004 
1.487673e-004 
1.482512e-004 
1.477993e-004 
1.474073e-004 
1.469057e-004 
1.463771e-004 
1.459864e-004 
1.455898e-004 
1.450814e-004 
1.446748e-004 
1.444095e-004 
1.440562e-004 
1.436862e-004 
1.435257e-004 
1.434174e-004 
1.432072e-004 
1.431378e-004 
1.432735e-004 
1.433470e-004 
1.434176e-004 
1.437358e-004 
1.441349e-004 
1.444377e-004 
1.448870e-004 
1.455478e-004 
1.461451e-004 
1.467266e-004 
1.475296e-004 
1.483911e-004 
1.491366e-004 
1.499833e-004 
1.509887e-004 
1.519010e-004 
1.527543e-004 
1.537564e-004 
1.547685e-004 
1.556335e-004 
1.565324e-004 
1.575230e-004 
1.583953e-004 
1.591683e-004 
1.600215e-004 
1.608536e-004 
1.615286e-004 
1.621898e-004 
1.629040e-004 
1.635051e-004 
1.639944e-004 
1.645272e-004 
1.650419e-004 
1.654159e-004 
1.657580e-004 
1.661435e-004 
1.664438e-004 
1.666375e-004 
1.668601e-004 
1.670801e-004 
1.671835e-004 
1.672417e-004 
1.673405e-004 
1.673734e-004 
1.673018e-004 
1.672328e-004 
1.671582e-004 
1.669572e-004 
1.667010e-004 
1.000000e+000 
1.000000e+000 
1.492216e-004 
1.493522e-004 
1.495143e-004 
1.497001e-004 
1.498111e-004 
1.499067e-004 
1.500641e-004 
1.501891e-004 
1.502429e-004 
1.503478e-004 
1.504931e-004 
1.505573e-004 
1.506069e-004 
1.507467e-004 
1.508612e-004 
1.508914e-004 
1.509875e-004 
1.511504e-004 
1.512191e-004 
1.512629e-004 
1.514241e-004 
1.515693e-004 
1.516018e-004 
1.517045e-004 
1.519027e-004 
1.519905e-004 
1.520248e-004 
1.521996e-004 
1.523724e-004 
1.523951e-004 
1.524768e-004 
1.526861e-004 
1.527725e-004 
1.527637e-004 
1.529087e-004 
1.530751e-004 
1.530533e-004 
1.530637e-004 
1.532326e-004 
1.532775e-004 
1.531778e-004 
1.532316e-004 
1.533371e-004 
1.532251e-004 
1.531052e-004 
1.531665e-004 
1.531156e-004 
1.528743e-004 
1.527698e-004 
1.527478e-004 
1.524962e-004 
1.521934e-004 
1.520800e-004 
1.518788e-004 
1.514605e-004 
1.511534e-004 
1.509538e-004 
1.505397e-004 
1.500485e-004 
1.497434e-004 
1.493871e-004 
1.488264e-004 
1.483612e-004 
1.480231e-004 
1.475208e-004 
1.469557e-004 
1.465733e-004 
1.461873e-004 
1.456597e-004 
1.452364e-004 
1.449552e-004 
1.445891e-004 
1.442161e-004 
1.440228e-004 
1.438729e-004 
1.436734e-004 
1.435979e-004 
1.436626e-004 
1.437198e-004 
1.438294e-004 
1.440955e-004 
1.444245e-004 
1.447744e-004 
1.452400e-004 
1.458071e-004 
1.464010e-004 
1.470610e-004 
1.478150e-004 
1.486054e-004 
1.494278e-004 
1.503126e-004 
1.512269e-004 
1.521488e-004 
1.531006e-004 
1.540642e-004 
1.550108e-004 
1.559585e-004 
1.569033e-004 
1.578097e-004 
1.586879e-004 
1.595538e-004 
1.603739e-004 
1.611386e-004 
1.618794e-004 
1.625821e-004 
1.632162e-004 
1.638076e-004 
1.643734e-004 
1.648773e-004 
1.653211e-004 
1.657411e-004 
1.661216e-004 
1.664349e-004 
1.667149e-004 
1.669746e-004 
1.671784e-004 
1.673309e-004 
1.674699e-004 
1.675708e-004 
1.676106e-004 
1.676197e-004 
1.676063e-004 
1.675259e-004 
1.673977e-004 
1.672494e-004 
1.670277e-004 
1.000000e+000 
1.000000e+000 
1.490747e-004 
1.492635e-004 
1.494227e-004 
1.495979e-004 
1.497642e-004 
1.498793e-004 
1.499888e-004 
1.501297e-004 
1.502418e-004 
1.503117e-004 
1.504121e-004 
1.505361e-004 
1.506105e-004 
1.506736e-004 
1.507923e-004 
1.509044e-004 
1.509623e-004 
1.510525e-004 
1.511946e-004 
1.512910e-004 
1.513566e-004 
1.514902e-004 
1.516391e-004 
1.517181e-004 
1.518130e-004 
1.519817e-004 
1.521111e-004 
1.521807e-004 
1.523146e-004 
1.524880e-004 
1.525776e-004 
1.526523e-004 
1.528138e-004 
1.529517e-004 
1.529965e-004 
1.530861e-004 
1.532417e-004 
1.533088e-004 
1.533172e-004 
1.534153e-004 
1.535170e-004 
1.534936e-004 
1.534777e-004 
1.535552e-004 
1.535530e-004 
1.534381e-004 
1.534018e-004 
1.534084e-004 
1.532645e-004 
1.530740e-004 
1.530022e-004 
1.528765e-004 
1.525815e-004 
1.523410e-004 
1.521942e-004 
1.518877e-004 
1.514746e-004 
1.512051e-004 
1.509291e-004 
1.504421e-004 
1.499859e-004 
1.496872e-004 
1.492476e-004 
1.486605e-004 
1.482502e-004 
1.479029e-004 
1.473389e-004 
1.468038e-004 
1.464994e-004 
1.461035e-004 
1.455591e-004 
1.452363e-004 
1.450523e-004 
1.446833e-004 
1.443676e-004 
1.443439e-004 
1.442845e-004 
1.441068e-004 
1.441838e-004 
1.444439e-004 
1.445585e-004 
1.447473e-004 
1.452371e-004 
1.457146e-004 
1.460951e-004 
1.467127e-004 
1.474938e-004 
1.481405e-004 
1.488402e-004 
1.497795e-004 
1.506833e-004 
1.514761e-004 
1.524308e-004 
1.534819e-004 
1.543810e-004 
1.552756e-004 
1.563164e-004 
1.572841e-004 
1.581122e-004 
1.590174e-004 
1.599580e-004 
1.607368e-004 
1.614622e-004 
1.622657e-004 
1.629864e-004 
1.635610e-004 
1.641612e-004 
1.647772e-004 
1.652514e-004 
1.656556e-004 
1.661109e-004 
1.665069e-004 
1.667739e-004 
1.670465e-004 
1.673423e-004 
1.675318e-004 
1.676473e-004 
1.678041e-004 
1.679276e-004 
1.679369e-004 
1.679290e-004 
1.679495e-004 
1.678787e-004 
1.677073e-004 
1.675409e-004 
1.673648e-004 
1.000000e+000 
1.000000e+000 
1.489226e-004 
1.491901e-004 
1.493869e-004 
1.495130e-004 
1.496923e-004 
1.498810e-004 
1.499725e-004 
1.500627e-004 
1.502252e-004 
1.503346e-004 
1.503724e-004 
1.504841e-004 
1.506294e-004 
1.506775e-004 
1.507302e-004 
1.508856e-004 
1.509955e-004 
1.510229e-004 
1.511412e-004 
1.513172e-004 
1.513818e-004 
1.514431e-004 
1.516333e-004 
1.517824e-004 
1.518217e-004 
1.519588e-004 
1.521775e-004 
1.522653e-004 
1.523259e-004 
1.525380e-004 
1.527164e-004 
1.527496e-004 
1.528745e-004 
1.531079e-004 
1.531939e-004 
1.532178e-004 
1.534073e-004 
1.535787e-004 
1.535692e-004 
1.536314e-004 
1.538268e-004 
1.538688e-004 
1.538077e-004 
1.539116e-004 
1.540176e-004 
1.539171e-004 
1.538546e-004 
1.539380e-004 
1.538752e-004 
1.536730e-004 
1.536155e-004 
1.535782e-004 
1.533288e-004 
1.530805e-004 
1.529717e-004 
1.527379e-004 
1.523522e-004 
1.520792e-004 
1.518375e-004 
1.514119e-004 
1.509701e-004 
1.506479e-004 
1.502394e-004 
1.497127e-004 
1.492759e-004 
1.488796e-004 
1.483708e-004 
1.478699e-004 
1.474701e-004 
1.470424e-004 
1.465811e-004 
1.462094e-004 
1.458908e-004 
1.455626e-004 
1.452993e-004 
1.451224e-004 
1.449813e-004 
1.449078e-004 
1.449271e-004 
1.450027e-004 
1.451599e-004 
1.454237e-004 
1.457420e-004 
1.461294e-004 
1.466409e-004 
1.472147e-004 
1.478148e-004 
1.485250e-004 
1.493248e-004 
1.501147e-004 
1.509516e-004 
1.518946e-004 
1.528320e-004 
1.537347e-004 
1.547110e-004 
1.557181e-004 
1.566436e-004 
1.575626e-004 
1.585347e-004 
1.594410e-004 
1.602590e-004 
1.611026e-004 
1.619326e-004 
1.626447e-004 
1.633140e-004 
1.640053e-004 
1.646140e-004 
1.651195e-004 
1.656314e-004 
1.661256e-004 
1.665068e-004 
1.668422e-004 
1.671989e-004 
1.674884e-004 
1.676849e-004 
1.678908e-004 
1.680895e-004 
1.681920e-004 
1.682517e-004 
1.683363e-004 
1.683596e-004 
1.682897e-004 
1.682195e-004 
1.681438e-004 
1.679624e-004 
1.677069e-004 
1.000000e+000 
1.000000e+000 
1.488534e-004 
1.490799e-004 
1.493223e-004 
1.495229e-004 
1.496650e-004 
1.498235e-004 
1.499921e-004 
1.500967e-004 
1.501817e-004 
1.503195e-004 