# vtk DataFile Version 2.0
2D-ADE data file 
ASCII
DATASET RECTILINEAR_GRID
DIMENSIONS 128 128 1
X_COORDINATES 128 int
0 1 2 3 4 5 6 7 8 9 10 11 12 13 14 15 16 17 18 19 20 21 22 23 24 25 26 27 28 29 30 31 32 33 34 35 36 37 38 39 40 41 42 43 44 45 46 47 48 49 50 51 52 53 54 55 56 57 58 59 60 61 62 63 64 65 66 67 68 69 70 71 72 73 74 75 76 77 78 79 80 81 82 83 84 85 86 87 88 89 90 91 92 93 94 95 96 97 98 99 100 101 102 103 104 105 106 107 108 109 110 111 112 113 114 115 116 117 118 119 120 121 122 123 124 125 126 127 
Y_COORDINATES 128 int
0 1 2 3 4 5 6 7 8 9 10 11 12 13 14 15 16 17 18 19 20 21 22 23 24 25 26 27 28 29 30 31 32 33 34 35 36 37 38 39 40 41 42 43 44 45 46 47 48 49 50 51 52 53 54 55 56 57 58 59 60 61 62 63 64 65 66 67 68 69 70 71 72 73 74 75 76 77 78 79 80 81 82 83 84 85 86 87 88 89 90 91 92 93 94 95 96 97 98 99 100 101 102 103 104 105 106 107 108 109 110 111 112 113 114 115 116 117 118 119 120 121 122 123 124 125 126 127 
Z_COORDINATES 1 int
0
POINT_DATA 16384 
SCALARS density double 1
LOOKUP_TABLE default
1.000000e+000 
1.000000e+000 
1.000000e+000 
1.000000e+000 
1.000000e+000 
1.000000e+000 
1.000000e+000 
1.000000e+000 
1.000000e+000 
1.000000e+000 
1.000000e+000 
1.000000e+000 
1.000000e+000 
1.000000e+000 
1.000000e+000 
1.000000e+000 
1.000000e+000 
1.000000e+000 
1.000000e+000 
1.000000e+000 
1.000000e+000 
1.000000e+000 
1.000000e+000 
1.000000e+000 
1.000000e+000 
1.000000e+000 
1.000000e+000 
1.000000e+000 
1.000000e+000 
1.000000e+000 
1.000000e+000 
1.000000e+000 
1.000000e+000 
1.000000e+000 
1.000000e+000 
1.000000e+000 
1.000000e+000 
1.000000e+000 
1.000000e+000 
1.000000e+000 
1.000000e+000 
1.000000e+000 
1.000000e+000 
1.000000e+000 
1.000000e+000 
1.000000e+000 
1.000000e+000 
1.000000e+000 
1.000000e+000 
1.000000e+000 
1.000000e+000 
1.000000e+000 
1.000000e+000 
1.000000e+000 
1.000000e+000 
1.000000e+000 
1.000000e+000 
1.000000e+000 
1.000000e+000 
1.000000e+000 
1.000000e+000 
1.000000e+000 
1.000000e+000 
1.000000e+000 
1.000000e+000 
1.000000e+000 
1.000000e+000 
1.000000e+000 
1.000000e+000 
1.000000e+000 
1.000000e+000 
1.000000e+000 
1.000000e+000 
1.000000e+000 
1.000000e+000 
1.000000e+000 
1.000000e+000 
1.000000e+000 
1.000000e+000 
1.000000e+000 
1.000000e+000 
1.000000e+000 
1.000000e+000 
1.000000e+000 
1.000000e+000 
1.000000e+000 
1.000000e+000 
1.000000e+000 
1.000000e+000 
1.000000e+000 
1.000000e+000 
1.000000e+000 
1.000000e+000 
1.000000e+000 
1.000000e+000 
1.000000e+000 
1.000000e+000 
1.000000e+000 
1.000000e+000 
1.000000e+000 
1.000000e+000 
1.000000e+000 
1.000000e+000 
1.000000e+000 
1.000000e+000 
1.000000e+000 
1.000000e+000 
1.000000e+000 
1.000000e+000 
1.000000e+000 
1.000000e+000 
1.000000e+000 
1.000000e+000 
1.000000e+000 
1.000000e+000 
1.000000e+000 
1.000000e+000 
1.000000e+000 
1.000000e+000 
1.000000e+000 
1.000000e+000 
1.000000e+000 
1.000000e+000 
1.000000e+000 
1.000000e+000 
1.000000e+000 
1.000000e+000 
1.000000e+000 
1.000000e+000 
1.256434e-004 
1.255704e-004 
1.254864e-004 
1.254584e-004 
1.254559e-004 
1.255998e-004 
1.258198e-004 
1.261134e-004 
1.264523e-004 
1.269169e-004 
1.274278e-004 
1.279672e-004 
1.285743e-004 
1.292687e-004 
1.299708e-004 
1.306936e-004 
1.315082e-004 
1.323647e-004 
1.332115e-004 
1.341092e-004 
1.351055e-004 
1.360984e-004 
1.370993e-004 
1.381931e-004 
1.393601e-004 
1.404941e-004 
1.416846e-004 
1.429861e-004 
1.443067e-004 
1.455974e-004 
1.469979e-004 
1.484781e-004 
1.499178e-004 
1.513654e-004 
1.529432e-004 
1.545185e-004 
1.560189e-004 
1.575779e-004 
1.592205e-004 
1.607556e-004 
1.622239e-004 
1.637706e-004 
1.652815e-004 
1.666026e-004 
1.678950e-004 
1.692108e-004 
1.703346e-004 
1.712481e-004 
1.721565e-004 
1.729496e-004 
1.734275e-004 
1.737395e-004 
1.740063e-004 
1.739849e-004 
1.736257e-004 
1.731676e-004 
1.725505e-004 
1.715347e-004 
1.702760e-004 
1.689491e-004 
1.673360e-004 
1.653621e-004 
1.633046e-004 
1.611537e-004 
1.586829e-004 
1.560452e-004 
1.534623e-004 
1.507582e-004 
1.478676e-004 
1.450704e-004 
1.424010e-004 
1.396674e-004 
1.370124e-004 
1.346550e-004 
1.324618e-004 
1.303758e-004 
1.286329e-004 
1.272699e-004 
1.261235e-004 
1.252937e-004 
1.249385e-004 
1.249430e-004 
1.252328e-004 
1.259598e-004 
1.271209e-004 
1.285696e-004 
1.303308e-004 
1.324906e-004 
1.349272e-004 
1.375568e-004 
1.404359e-004 
1.435480e-004 
1.467483e-004 
1.500356e-004 
1.534312e-004 
1.568591e-004 
1.602207e-004 
1.635664e-004 
1.668603e-004 
1.700343e-004 
1.730504e-004 
1.759715e-004 
1.787199e-004 
1.812827e-004 
1.836539e-004 
1.858898e-004 
1.878967e-004 
1.897290e-004 
1.913707e-004 
1.928762e-004 
1.941498e-004 
1.953009e-004 
1.962702e-004 
1.971297e-004 
1.977758e-004 
1.983550e-004 
1.987508e-004 
1.990709e-004 
1.991888e-004 
1.992807e-004 
1.991890e-004 
1.990593e-004 
1.987614e-004 
1.985004e-004 
1.982604e-004 
1.981489e-004 
1.000000e+000 
1.000000e+000 
1.257031e-004 
1.256287e-004 
1.255570e-004 
1.256018e-004 
1.256100e-004 
1.257530e-004 
1.259449e-004 
1.262614e-004 
1.265742e-004 
1.270042e-004 
1.274922e-004 
1.280299e-004 
1.285928e-004 
1.292474e-004 
1.299411e-004 
1.306431e-004 
1.314075e-004 
1.322347e-004 
1.330791e-004 
1.339363e-004 
1.348851e-004 
1.358615e-004 
1.368518e-004 
1.378869e-004 
1.390157e-004 
1.401394e-004 
1.412991e-004 
1.425309e-004 
1.438266e-004 
1.451028e-004 
1.464475e-004 
1.478588e-004 
1.492890e-004 
1.507077e-004 
1.522085e-004 
1.537327e-004 
1.552373e-004 
1.567439e-004 
1.583045e-004 
1.598250e-004 
1.613017e-004 
1.627707e-004 
1.642247e-004 
1.655788e-004 
1.668653e-004 
1.680941e-004 
1.692241e-004 
1.702075e-004 
1.710792e-004 
1.718178e-004 
1.723890e-004 
1.727710e-004 
1.729787e-004 
1.729917e-004 
1.727955e-004 
1.723654e-004 
1.717161e-004 
1.708566e-004 
1.697658e-004 
1.684182e-004 
1.668711e-004 
1.651436e-004 
1.631846e-004 
1.610176e-004 
1.587476e-004 
1.563484e-004 
1.537726e-004 
1.511393e-004 
1.485331e-004 
1.458636e-004 
1.431685e-004 
1.406263e-004 
1.382140e-004 
1.358466e-004 
1.336841e-004 
1.318427e-004 
1.301886e-004 
1.287469e-004 
1.277172e-004 
1.270546e-004 
1.266214e-004 
1.265734e-004 
1.269989e-004 
1.277246e-004 
1.287253e-004 
1.301814e-004 
1.319928e-004 
1.339988e-004 
1.362928e-004 
1.389464e-004 
1.417385e-004 
1.446401e-004 
1.477599e-004 
1.510240e-004 
1.542309e-004 
1.574900e-004 
1.608139e-004 
1.640654e-004 
1.671542e-004 
1.702462e-004 
1.732246e-004 
1.760106e-004 
1.786116e-004 
1.811666e-004 
1.834737e-004 
1.855894e-004 
1.875318e-004 
1.893908e-004 
1.909442e-004 
1.923888e-004 
1.936601e-004 
1.948390e-004 
1.957171e-004 
1.965905e-004 
1.972573e-004 
1.978580e-004 
1.981855e-004 
1.985889e-004 
1.987295e-004 
1.988582e-004 
1.987513e-004 
1.987635e-004 
1.985098e-004 
1.983253e-004 
1.981528e-004 
1.980746e-004 
1.000000e+000 
1.000000e+000 
1.257736e-004 
1.257132e-004 
1.256342e-004 
1.256197e-004 
1.257057e-004 
1.258497e-004 
1.260186e-004 
1.262994e-004 
1.266610e-004 
1.270471e-004 
1.274816e-004 
1.280261e-004 
1.286005e-004 
1.291771e-004 
1.298346e-004 
1.305719e-004 
1.312925e-004 
1.320373e-004 
1.328893e-004 
1.337688e-004 
1.346202e-004 
1.355493e-004 
1.365786e-004 
1.375816e-004 
1.385926e-004 
1.397287e-004 
1.409144e-004 
1.420484e-004 
1.432585e-004 
1.445943e-004 
1.459049e-004 
1.471869e-004 
1.486039e-004 
1.500817e-004 
1.514746e-004 
1.529015e-004 
1.544637e-004 
1.559755e-004 
1.573920e-004 
1.589015e-004 
1.604611e-004 
1.618617e-004 
1.632085e-004 
1.646456e-004 
1.659807e-004 
1.671035e-004 
1.682263e-004 
1.693409e-004 
1.701990e-004 
1.708677e-004 
1.715414e-004 
1.720367e-004 
1.721970e-004 
1.722368e-004 
1.722022e-004 
1.718318e-004 
1.711657e-004 
1.704321e-004 
1.694913e-004 
1.681703e-004 
1.666831e-004 
1.651241e-004 
1.632679e-004 
1.611439e-004 
1.589971e-004 
1.567443e-004 
1.542417e-004 
1.516903e-004 
1.492132e-004 
1.466469e-004 
1.440266e-004 
1.415747e-004 
1.392543e-004 
1.369667e-004 
1.348750e-004 
1.330861e-004 
1.314909e-004 
1.301162e-004 
1.291136e-004 
1.284567e-004 
1.280719e-004 
1.280494e-004 
1.284369e-004 
1.291516e-004 
1.301820e-004 
1.315874e-004 
1.333231e-004 
1.353215e-004 
1.375906e-004 
1.401251e-004 
1.428505e-004 
1.457302e-004 
1.487534e-004 
1.518801e-004 
1.550489e-004 
1.582408e-004 
1.614270e-004 
1.645723e-004 
1.676367e-004 
1.706113e-004 
1.734677e-004 
1.761934e-004 
1.787616e-004 
1.811777e-004 
1.834229e-004 
1.855052e-004 
1.874030e-004 
1.891404e-004 
1.907030e-004 
1.921109e-004 
1.933434e-004 
1.944424e-004 
1.953844e-004 
1.961976e-004 
1.968604e-004 
1.974253e-004 
1.978489e-004 
1.981708e-004 
1.983713e-004 
1.984988e-004 
1.985023e-004 
1.984402e-004 
1.983259e-004 
1.981597e-004 
1.979655e-004 
1.978132e-004 
1.000000e+000 
1.000000e+000 
1.258050e-004 
1.256693e-004 
1.256373e-004 
1.256280e-004 
1.256995e-004 
1.258380e-004 
1.260437e-004 
1.262918e-004 
1.266347e-004 
1.270312e-004 
1.274637e-004 
1.279531e-004 
1.285144e-004 
1.291037e-004 
1.297202e-004 
1.304024e-004 
1.311277e-004 
1.318689e-004 
1.326492e-004 
1.334954e-004 
1.343623e-004 
1.352539e-004 
1.362017e-004 
1.372051e-004 
1.382206e-004 
1.392813e-004 
1.404046e-004 
1.415676e-004 
1.427470e-004 
1.439871e-004 
1.452803e-004 
1.465972e-004 
1.479369e-004 
1.493360e-004 
1.507655e-004 
1.522013e-004 
1.536554e-004 
1.551481e-004 
1.566381e-004 
1.581068e-004 
1.595721e-004 
1.610396e-004 
1.624552e-004 
1.638064e-004 
1.651209e-004 
1.663836e-004 
1.675245e-004 
1.685529e-004 
1.695060e-004 
1.703297e-004 
1.709539e-004 
1.714345e-004 
1.717932e-004 
1.719269e-004 
1.718131e-004 
1.715558e-004 
1.711137e-004 
1.703701e-004 
1.694035e-004 
1.683119e-004 
1.669684e-004 
1.653299e-004 
1.635723e-004 
1.617003e-004 
1.595573e-004 
1.572529e-004 
1.549643e-004 
1.525643e-004 
1.499911e-004 
1.474855e-004 
1.450928e-004 
1.426320e-004 
1.402275e-004 
1.381054e-004 
1.361325e-004 
1.342274e-004 
1.326486e-004 
1.314439e-004 
1.304069e-004 
1.296425e-004 
1.293633e-004 
1.294095e-004 
1.296710e-004 
1.303626e-004 
1.314981e-004 
1.328439e-004 
1.344626e-004 
1.365051e-004 
1.387964e-004 
1.411983e-004 
1.438699e-004 
1.467886e-004 
1.497366e-004 
1.527329e-004 
1.558975e-004 
1.590665e-004 
1.621247e-004 
1.651837e-004 
1.682489e-004 
1.711330e-004 
1.738694e-004 
1.765519e-004 
1.790946e-004 
1.813881e-004 
1.835614e-004 
1.856197e-004 
1.874660e-004 
1.890930e-004 
1.906399e-004 
1.920203e-004 
1.931991e-004 
1.942270e-004 
1.951968e-004 
1.959712e-004 
1.966075e-004 
1.971451e-004 
1.976252e-004 
1.979047e-004 
1.981245e-004 
1.982631e-004 
1.983403e-004 
1.982335e-004 
1.981481e-004 
1.980125e-004 
1.978234e-004 
1.975259e-004 
1.000000e+000 
1.000000e+000 
1.258084e-004 
1.256422e-004 
1.255574e-004 
1.255774e-004 
1.256337e-004 
1.257604e-004 
1.259943e-004 
1.262552e-004 
1.265482e-004 
1.269414e-004 
1.274028e-004 
1.278561e-004 
1.283651e-004 
1.289742e-004 
1.295895e-004 
1.301986e-004 
1.309010e-004 
1.316689e-004 
1.323995e-004 
1.331713e-004 
1.340552e-004 
1.349463e-004 
1.358053e-004 
1.367710e-004 
1.378226e-004 
1.388311e-004 
1.398646e-004 
1.410430e-004 
1.422383e-004 
1.433832e-004 
1.446314e-004 
1.459987e-004 
1.473061e-004 
1.486105e-004 
1.500641e-004 
1.515457e-004 
1.529274e-004 
1.543799e-004 
1.559490e-004 
1.574280e-004 
1.588261e-004 
1.603362e-004 
1.618446e-004 
1.631750e-004 
1.644798e-004 
1.658519e-004 
1.670630e-004 
1.680768e-004 
1.690991e-004 
1.700520e-004 
1.707198e-004 
1.712313e-004 
1.717126e-004 
1.719548e-004 
1.718837e-004 
1.717077e-004 
1.713917e-004 
1.707308e-004 
1.698272e-004 
1.688321e-004 
1.675877e-004 
1.660252e-004 
1.643373e-004 
1.625369e-004 
1.604748e-004 
1.582441e-004 
1.559931e-004 
1.536377e-004 
1.511469e-004 
1.486808e-004 
1.462782e-004 
1.438690e-004 
1.415340e-004 
1.393831e-004 
1.373902e-004 
1.355615e-004 
1.339918e-004 
1.327075e-004 
1.316949e-004 
1.309950e-004 
1.306411e-004 
1.306267e-004 
1.309607e-004 
1.316448e-004 
1.326656e-004 
1.340231e-004 
1.357006e-004 
1.376498e-004 
1.398624e-004 
1.423271e-004 
1.449781e-004 
1.477689e-004 
1.507091e-004 
1.537459e-004 
1.568037e-004 
1.598769e-004 
1.629663e-004 
1.659884e-004 
1.689120e-004 
1.717610e-004 
1.745080e-004 
1.770814e-004 
1.795108e-004 
1.818115e-004 
1.839397e-004 
1.858685e-004 
1.876626e-004 
1.893018e-004 
1.907569e-004 
1.920447e-004 
1.932262e-004 
1.942459e-004 
1.951152e-004 
1.958661e-004 
1.965318e-004 
1.970402e-004 
1.974525e-004 
1.977796e-004 
1.980251e-004 
1.981269e-004 
1.981857e-004 
1.981758e-004 
1.980826e-004 
1.978754e-004 
1.975825e-004 
1.972720e-004 
1.000000e+000 
1.000000e+000 
1.256490e-004 
1.254899e-004 
1.254136e-004 
1.254406e-004 
1.255191e-004 
1.256499e-004 
1.258439e-004 
1.261288e-004 
1.264511e-004 
1.268081e-004 
1.272346e-004 
1.277237e-004 
1.282255e-004 
1.287658e-004 
1.293753e-004 
1.300155e-004 
1.306610e-004 
1.313616e-004 
1.321226e-004 
1.328913e-004 
1.336805e-004 
1.345434e-004 
1.354494e-004 
1.363561e-004 
1.373136e-004 
1.383517e-004 
1.394105e-004 
1.404809e-004 
1.416322e-004 
1.428509e-004 
1.440689e-004 
1.453224e-004 
1.466708e-004 
1.480508e-004 
1.494158e-004 
1.508426e-004 
1.523473e-004 
1.538292e-004 
1.552928e-004 
1.568299e-004 
1.583854e-004 
1.598563e-004 
1.613161e-004 
1.628238e-004 
1.642485e-004 
1.655404e-004 
1.668270e-004 
1.680787e-004 
1.691296e-004 
1.700343e-004 
1.709139e-004 
1.716226e-004 
1.720470e-004 
1.723510e-004 
1.725592e-004 
1.724545e-004 
1.720697e-004 
1.716022e-004 
1.709230e-004 
1.698662e-004 
1.686349e-004 
1.673283e-004 
1.657094e-004 
1.637978e-004 
1.618669e-004 
1.598266e-004 
1.574863e-004 
1.550812e-004 
1.527768e-004 
1.503407e-004 
1.477891e-004 
1.454377e-004 
1.432264e-004 
1.409598e-004 
1.388765e-004 
1.371579e-004 
1.355778e-004 
1.341399e-004 
1.331377e-004 
1.325043e-004 
1.320390e-004 
1.319365e-004 
1.323316e-004 
1.329940e-004 
1.338954e-004 
1.352519e-004 
1.369668e-004 
1.388369e-004 
1.409861e-004 
1.434868e-004 
1.461183e-004 
1.488277e-004 
1.517566e-004 
1.548080e-004 
1.578020e-004 
1.608192e-004 
1.639076e-004 
1.668978e-004 
1.697415e-004 
1.725545e-004 
1.752764e-004 
1.777818e-004 
1.801363e-004 
1.824053e-004 
1.844779e-004 
1.863302e-004 
1.880638e-004 
1.896688e-004 
1.910543e-004 
1.922827e-004 
1.934202e-004 
1.944097e-004 
1.952181e-004 
1.959405e-004 
1.965794e-004 
1.970760e-004 
1.974493e-004 
1.977799e-004 
1.980159e-004 
1.981330e-004 
1.981704e-004 
1.981685e-004 
1.980340e-004 
1.978379e-004 
1.975849e-004 
1.971859e-004 
1.000000e+000 
1.000000e+000 
1.254220e-004 
1.253193e-004 
1.252312e-004 
1.252142e-004 
1.253131e-004 
1.254898e-004 
1.256685e-004 
1.259309e-004 
1.262821e-004 
1.266483e-004 
1.270326e-004 
1.275168e-004 
1.280419e-004 
1.285485e-004 
1.291131e-004 
1.297671e-004 
1.304073e-004 
1.310460e-004 
1.317852e-004 
1.325705e-004 
1.333166e-004 
1.341204e-004 
1.350351e-004 
1.359389e-004 
1.368301e-004 
1.378422e-004 
1.389267e-004 
1.399652e-004 
1.410614e-004 
1.422991e-004 
1.435387e-004 
1.447480e-004 
1.460863e-004 
1.475204e-004 
1.488956e-004 
1.503008e-004 
1.518543e-004 
1.534068e-004 
1.548843e-004 
1.564522e-004 
1.581045e-004 
1.596535e-004 
1.611559e-004 
1.627507e-004 
1.642984e-004 
1.656811e-004 
1.670492e-004 
1.684231e-004 
1.696091e-004 
1.706221e-004 
1.716045e-004 
1.724460e-004 
1.730142e-004 
1.734274e-004 
1.737299e-004 
1.737618e-004 
1.735176e-004 
1.731235e-004 
1.725193e-004 
1.716063e-004 
1.704743e-004 
1.691793e-004 
1.676374e-004 
1.658579e-004 
1.639361e-004 
1.618665e-004 
1.596279e-004 
1.572866e-004 
1.548902e-004 
1.524458e-004 
1.499957e-004 
1.475838e-004 
1.452424e-004 
1.430291e-004 
1.409734e-004 
1.390845e-004 
1.374351e-004 
1.360766e-004 
1.349749e-004 
1.341635e-004 
1.337340e-004 
1.336502e-004 
1.338584e-004 
1.344465e-004 
1.354330e-004 
1.366995e-004 
1.382529e-004 
1.401732e-004 
1.423572e-004 
1.447027e-004 
1.472837e-004 
1.500866e-004 
1.529508e-004 
1.558709e-004 
1.589139e-004 
1.619666e-004 
1.649222e-004 
1.678592e-004 
1.707700e-004 
1.735190e-004 
1.761093e-004 
1.786275e-004 
1.809915e-004 
1.831290e-004 
1.851226e-004 
1.870039e-004 
1.886695e-004 
1.901421e-004 
1.915107e-004 
1.927417e-004 
1.937671e-004 
1.946781e-004 
1.955096e-004 
1.961970e-004 
1.967334e-004 
1.972240e-004 
1.976300e-004 
1.979045e-004 
1.980873e-004 
1.982478e-004 
1.982926e-004 
1.982427e-004 
1.981231e-004 
1.979197e-004 
1.975352e-004 
1.971005e-004 
1.000000e+000 
1.000000e+000 
1.251061e-004 
1.249645e-004 
1.249446e-004 
1.249811e-004 
1.250517e-004 
1.252173e-004 
1.254523e-004 
1.257124e-004 
1.260198e-004 
1.264156e-004 
1.268357e-004 
1.272627e-004 
1.277577e-004 
1.283169e-004 
1.288634e-004 
1.294331e-004 
1.300877e-004 
1.307683e-004 
1.314269e-004 
1.321504e-004 
1.329565e-004 
1.337516e-004 
1.345535e-004 
1.354634e-004 
1.364268e-004 
1.373632e-004 
1.383644e-004 
1.394895e-004 
1.406212e-004 
1.417454e-004 
1.429951e-004 
1.443395e-004 
1.456478e-004 
1.470018e-004 
1.485084e-004 
1.500371e-004 
1.515146e-004 
1.530994e-004 
1.547989e-004 
1.564265e-004 
1.580251e-004 
1.597575e-004 
1.614918e-004 
1.630758e-004 
1.646752e-004 
1.663553e-004 
1.678773e-004 
1.692222e-004 
1.706077e-004 
1.719270e-004 
1.729463e-004 
1.738234e-004 
1.746988e-004 
1.753100e-004 
1.755726e-004 
1.757573e-004 
1.758128e-004 
1.754528e-004 
1.748243e-004 
1.741507e-004 
1.731858e-004 
1.718054e-004 
1.703239e-004 
1.687610e-004 
1.668231e-004 
1.646547e-004 
1.625418e-004 
1.602811e-004 
1.577440e-004 
1.552639e-004 
1.529099e-004 
1.504151e-004 
1.479210e-004 
1.457220e-004 
1.436507e-004 
1.415917e-004 
1.398483e-004 
1.384844e-004 
1.372640e-004 
1.363002e-004 
1.358249e-004 
1.356772e-004 
1.357451e-004 
1.362458e-004 
1.371913e-004 
1.383654e-004 
1.398253e-004 
1.417033e-004 
1.438372e-004 
1.461123e-004 
1.486506e-004 
1.514221e-004 
1.542424e-004 
1.571266e-004 
1.601432e-004 
1.631610e-004 
1.660868e-004 
1.689969e-004 
1.718697e-004 
1.745806e-004 
1.771422e-004 
1.796158e-004 
1.819271e-004 
1.840239e-004 
1.859742e-004 
1.877899e-004 
1.894011e-004 
1.908299e-004 
1.921392e-004 
1.933021e-004 
1.942868e-004 
1.951522e-004 
1.959238e-004 
1.965648e-004 
1.970813e-004 
1.975297e-004 
1.978963e-004 
1.981563e-004 
1.983349e-004 
1.984674e-004 
1.985030e-004 
1.984346e-004 
1.982926e-004 
1.980951e-004 
1.977706e-004 
1.972730e-004 
1.000000e+000 
1.000000e+000 
1.247402e-004 
1.246197e-004 
1.245769e-004 
1.246475e-004 
1.247479e-004 
1.248998e-004 
1.251502e-004 
1.254475e-004 
1.257446e-004 
1.261156e-004 
1.265600e-004 
1.270004e-004 
1.274562e-004 
1.280005e-004 
1.285703e-004 
1.291191e-004 
1.297264e-004 
1.304113e-004 
1.310787e-004 
1.317562e-004 
1.325316e-004 
1.333472e-004 
1.341372e-004 
1.349998e-004 
1.359659e-004 
1.369305e-004 
1.379090e-004 
1.390140e-004 
1.401876e-004 
1.413452e-004 
1.425839e-004 
1.439579e-004 
1.453470e-004 
1.467469e-004 
1.482791e-004 
1.498989e-004 
1.514947e-004 
1.531479e-004 
1.549262e-004 
1.567092e-004 
1.584575e-004 
1.602832e-004 
1.621562e-004 
1.639516e-004 
1.657117e-004 
1.675043e-004 
1.692255e-004 
1.708101e-004 
1.723332e-004 
1.737833e-004 
1.750528e-004 
1.761452e-004 
1.771075e-004 
1.778811e-004 
1.784094e-004 
1.787210e-004 
1.788208e-004 
1.786673e-004 
1.782484e-004 
1.775773e-004 
1.766629e-004 
1.755063e-004 
1.740932e-004 
1.724401e-004 
1.706064e-004 
1.685932e-004 
1.663704e-004 
1.640191e-004 
1.616224e-004 
1.591266e-004 
1.565472e-004 
1.540423e-004 
1.516257e-004 
1.492143e-004 
1.469384e-004 
1.449376e-004 
1.431054e-004 
1.414350e-004 
1.401349e-004 
1.391949e-004 
1.384669e-004 
1.380851e-004 
1.381822e-004 
1.385827e-004 
1.392405e-004 
1.403476e-004 
1.418388e-004 
1.435119e-004 
1.454709e-004 
1.478027e-004 
1.502893e-004 
1.528577e-004 
1.556616e-004 
1.586085e-004 
1.614946e-004 
1.644021e-004 
1.673998e-004 
1.702931e-004 
1.730209e-004 
1.757233e-004 
1.783399e-004 
1.807117e-004 
1.829222e-004 
1.850574e-004 
1.869847e-004 
1.886648e-004 
1.902379e-004 
1.916896e-004 
1.929053e-004 
1.939589e-004 
1.949513e-004 
1.957948e-004 
1.964521e-004 
1.970445e-004 
1.975854e-004 
1.979754e-004 
1.982599e-004 
1.985336e-004 
1.987261e-004 
1.987839e-004 
1.987966e-004 
1.987858e-004 
1.986366e-004 
1.983468e-004 
1.979713e-004 
1.975381e-004 
1.000000e+000 
1.000000e+000 
1.242251e-004 
1.241690e-004 
1.241574e-004 
1.242236e-004 
1.243783e-004 
1.245688e-004 
1.247798e-004 
1.250855e-004 
1.254482e-004 
1.258005e-004 
1.261934e-004 
1.266799e-004 
1.271672e-004 
1.276377e-004 
1.281896e-004 
1.288057e-004 
1.293797e-004 
1.299793e-004 
1.306906e-004 
1.314140e-004 
1.320970e-004 
1.328781e-004 
1.337633e-004 
1.346124e-004 
1.354795e-004 
1.365061e-004 
1.375859e-004 
1.386201e-004 
1.397671e-004 
1.410823e-004 
1.423808e-004 
1.436826e-004 
1.451800e-004 
1.467836e-004 
1.483223e-004 
1.499557e-004 
1.517992e-004 
1.536336e-004 
1.554071e-004 
1.573569e-004 
1.594278e-004 
1.613679e-004 
1.633017e-004 
1.654153e-004 
1.674703e-004 
1.693226e-004 
1.712316e-004 
1.732019e-004 
1.749119e-004 
1.764293e-004 
1.780084e-004 
1.794289e-004 
1.804627e-004 
1.813755e-004 
1.822497e-004 
1.827394e-004 
1.828591e-004 
1.829220e-004 
1.827629e-004 
1.821156e-004 
1.812439e-004 
1.803065e-004 
1.789858e-004 
1.772745e-004 
1.755185e-004 
1.736211e-004 
1.713348e-004 
1.689173e-004 
1.665682e-004 
1.640320e-004 
1.613114e-004 
1.587397e-004 
1.562666e-004 
1.536988e-004 
1.512684e-004 
1.491541e-004 
1.471605e-004 
1.453024e-004 
1.438388e-004 
1.427197e-004 
1.418013e-004 
1.412481e-004 
1.411572e-004 
1.413672e-004 
1.418770e-004 
1.428243e-004 
1.441299e-004 
1.456758e-004 
1.475343e-004 
1.497130e-004 
1.520758e-004 
1.545954e-004 
1.573111e-004 
1.601374e-004 
1.629858e-004 
1.658735e-004 
1.687773e-004 
1.716084e-004 
1.743467e-004 
1.770048e-004 
1.795337e-004 
1.818936e-004 
1.841023e-004 
1.861554e-004 
1.880203e-004 
1.897045e-004 
1.912294e-004 
1.925859e-004 
1.937720e-004 
1.948133e-004 
1.957204e-004 
1.964928e-004 
1.971458e-004 
1.976988e-004 
1.981544e-004 
1.985213e-004 
1.988093e-004 
1.990271e-004 
1.991734e-004 
1.992538e-004 
1.992583e-004 
1.991874e-004 
1.990276e-004 
1.988001e-004 
1.984656e-004 
1.979691e-004 
1.000000e+000 
1.000000e+000 
1.236600e-004 
1.236589e-004 
1.236925e-004 
1.237614e-004 
1.239170e-004 
1.241595e-004 
1.244047e-004 
1.246865e-004 
1.250519e-004 
1.254512e-004 
1.258387e-004 
1.262855e-004 
1.267950e-004 
1.272961e-004 
1.278054e-004 
1.283934e-004 
1.290094e-004 
1.296093e-004 
1.302624e-004 
1.309946e-004 
1.317281e-004 
1.324795e-004 
1.333275e-004 
1.342363e-004 
1.351490e-004 
1.361379e-004 
1.372412e-004 
1.383849e-004 
1.395686e-004 
1.408788e-004 
1.422911e-004 
1.437390e-004 
1.452761e-004 
1.469542e-004 
1.487038e-004 
1.504994e-004 
1.524114e-004 
1.544348e-004 
1.564926e-004 
1.585980e-004 
1.607991e-004 
1.630477e-004 
1.652833e-004 
1.675324e-004 
1.698099e-004 
1.720503e-004 
1.742066e-004 
1.763041e-004 
1.783401e-004 
1.802389e-004 
1.819592e-004 
1.835401e-004 
1.849695e-004 
1.861498e-004 
1.870667e-004 
1.877945e-004 
1.882853e-004 
1.884278e-004 
1.882865e-004 
1.879480e-004 
1.872925e-004 
1.862613e-004 
1.850219e-004 
1.835930e-004 
1.818067e-004 
1.797503e-004 
1.776247e-004 
1.753112e-004 
1.727114e-004 
1.700767e-004 
1.674940e-004 
1.647524e-004 
1.619536e-004 
1.593813e-004 
1.569117e-004 
1.544125e-004 
1.521782e-004 
1.503156e-004 
1.485720e-004 
1.470416e-004 
1.460157e-004 
1.453328e-004 
1.448276e-004 
1.447723e-004 
1.452271e-004 
1.459004e-004 
1.468525e-004 
1.483099e-004 
1.500664e-004 
1.519365e-004 
1.541288e-004 
1.566446e-004 
1.591941e-004 
1.618070e-004 
1.646454e-004 
1.675116e-004 
1.702412e-004 
1.729982e-004 
1.757814e-004 
1.783613e-004 
1.807669e-004 
1.831448e-004 
1.853617e-004 
1.873013e-004 
1.891109e-004 
1.908283e-004 
1.922958e-004 
1.935468e-004 
1.947258e-004 
1.957653e-004 
1.965756e-004 
1.972827e-004 
1.979468e-004 
1.984578e-004 
1.988227e-004 
1.991740e-004 
1.994714e-004 
1.996301e-004 
1.997252e-004 
1.998274e-004 
1.998301e-004 
1.997209e-004 
1.995732e-004 
1.993573e-004 
1.989525e-004 
1.984711e-004 
1.000000e+000 
1.000000e+000 
1.230424e-004 
1.230243e-004 
1.231213e-004 
1.232818e-004 
1.234328e-004 
1.236555e-004 
1.239687e-004 
1.242852e-004 
1.246009e-004 
1.250156e-004 
1.254701e-004 
1.258847e-004 
1.263456e-004 
1.269069e-004 
1.274426e-004 
1.279538e-004 
1.285735e-004 
1.292537e-004 
1.298712e-004 
1.305402e-004 
1.313528e-004 
1.321617e-004 
1.329364e-004 
1.338633e-004 
1.349117e-004 
1.359110e-004 
1.369741e-004 
1.382555e-004 
1.395866e-004 
1.408845e-004 
1.423716e-004 
1.440622e-004 
1.457228e-004 
1.474363e-004 
1.494198e-004 
1.515037e-004 
1.535200e-004 
1.557034e-004 
1.581266e-004 
1.604991e-004 
1.628314e-004 
1.653939e-004 
1.680379e-004 
1.705008e-004 
1.729914e-004 
1.756525e-004 
1.781611e-004 
1.804388e-004 
1.827867e-004 
1.851087e-004 
1.870743e-004 
1.888482e-004 
1.906399e-004 
1.921449e-004 
1.932182e-004 
1.941714e-004 
1.949806e-004 
1.953091e-004 
1.952839e-004 
1.951616e-004 
1.946998e-004 
1.937430e-004 
1.925938e-004 
1.912921e-004 
1.895574e-004 
1.875047e-004 
1.853968e-004 
1.830710e-004 
1.804177e-004 
1.777097e-004 
1.750132e-004 
1.721413e-004 
1.692126e-004 
1.664430e-004 
1.637348e-004 
1.610472e-004 
1.585873e-004 
1.563960e-004 
1.543745e-004 
1.526233e-004 
1.512558e-004 
1.502030e-004 
1.494643e-004 
1.491354e-004 
1.491925e-004 
1.495849e-004 
1.503537e-004 
1.514880e-004 
1.529223e-004 
1.546542e-004 
1.566665e-004 
1.588836e-004 
1.612792e-004 
1.638392e-004 
1.664836e-004 
1.691649e-004 
1.718854e-004 
1.745857e-004 
1.771965e-004 
1.797283e-004 
1.821687e-004 
1.844467e-004 
1.865555e-004 
1.885303e-004 
1.903315e-004 
1.919259e-004 
1.933605e-004 
1.946521e-004 
1.957559e-004 
1.966949e-004 
1.975245e-004 
1.982276e-004 
1.987828e-004 
1.992504e-004 
1.996506e-004 
1.999482e-004 
2.001576e-004 
2.003348e-004 
2.004501e-004 
2.004819e-004 
2.004590e-004 
2.003951e-004 
2.002311e-004 
1.999920e-004 
1.996919e-004 
1.992438e-004 
1.000000e+000 
1.000000e+000 
1.223581e-004 
1.224133e-004 
1.225010e-004 
1.226918e-004 
1.229181e-004 
1.231513e-004 
1.234462e-004 
1.238135e-004 
1.241717e-004 
1.245459e-004 
1.249950e-004 
1.254764e-004 
1.259327e-004 
1.264351e-004 
1.270096e-004 
1.275812e-004 
1.281487e-004 
1.288001e-004 
1.295075e-004 
1.302041e-004 
1.309500e-004 
1.318080e-004 
1.327052e-004 
1.336216e-004 
1.346520e-004 
1.358036e-004 
1.369918e-004 
1.382576e-004 
1.396883e-004 
1.412313e-004 
1.428270e-004 
1.445630e-004 
1.464821e-004 
1.484896e-004 
1.505729e-004 
1.528361e-004 
1.552558e-004 
1.577214e-004 
1.602747e-004 
1.630019e-004 
1.658061e-004 
1.685917e-004 
1.714537e-004 
1.744243e-004 
1.773403e-004 
1.801636e-004 
1.830267e-004 
1.858676e-004 
1.884956e-004 
1.909758e-004 
1.934293e-004 
1.956759e-004 
1.975794e-004 
1.993227e-004 
2.009293e-004 
2.021357e-004 
2.029638e-004 
2.036489e-004 
2.040419e-004 
2.039190e-004 
2.035089e-004 
2.029524e-004 
2.019511e-004 
2.004873e-004 
1.989065e-004 
1.971198e-004 
1.948468e-004 
1.923528e-004 
1.898840e-004 
1.871381e-004 
1.840762e-004 
1.811185e-004 
1.782238e-004 
1.750899e-004 
1.720019e-004 
1.692510e-004 
1.665360e-004 
1.638129e-004 
1.615076e-004 
1.595735e-004 
1.577064e-004 
1.561717e-004 
1.552143e-004 
1.545211e-004 
1.540379e-004 
1.541111e-004 
1.546399e-004 
1.553274e-004 
1.563726e-004 
1.579182e-004 
1.596516e-004 
1.615038e-004 
1.637110e-004 
1.661388e-004 
1.685282e-004 
1.710139e-004 
1.736754e-004 
1.762556e-004 
1.786973e-004 
1.811753e-004 
1.835927e-004 
1.857628e-004 
1.877964e-004 
1.897776e-004 
1.915388e-004 
1.930503e-004 
1.944682e-004 
1.957603e-004 
1.968022e-004 
1.976891e-004 
1.985195e-004 
1.991956e-004 
1.996880e-004 
2.001313e-004 
2.005288e-004 
2.007852e-004 
2.009528e-004 
2.011291e-004 
2.012392e-004 
2.012352e-004 
2.012032e-004 
2.011689e-004 
2.010189e-004 
2.007472e-004 
2.004217e-004 
2.000532e-004 
1.000000e+000 
1.000000e+000 
1.215569e-004 
1.217126e-004 
1.218705e-004 
1.220505e-004 
1.223237e-004 
1.226348e-004 
1.229131e-004 
1.232610e-004 
1.236908e-004 
1.240916e-004 
1.244857e-004 
1.249890e-004 
1.255161e-004 
1.259871e-004 
1.265244e-004 
1.271705e-004 
1.277752e-004 
1.283703e-004 
1.291096e-004 
1.299101e-004 
1.306520e-004 
1.314943e-004 
1.325138e-004 
1.335314e-004 
1.345561e-004 
1.357989e-004 
1.371843e-004 
1.385422e-004 
1.400396e-004 
1.418113e-004 
1.436445e-004 
1.454980e-004 
1.476228e-004 
1.499745e-004 
1.523113e-004 
1.547742e-004 
1.575536e-004 
1.604195e-004 
1.632444e-004 
1.662912e-004 
1.695590e-004 
1.727420e-004 
1.759136e-004 
1.793086e-004 
1.827074e-004 
1.858973e-004 
1.891168e-004 
1.924218e-004 
1.954829e-004 
1.983011e-004 
2.011317e-004 
2.038051e-004 
2.060683e-004 
2.081207e-004 
2.100680e-004 
2.116195e-004 
2.127376e-004 
2.136701e-004 
2.143160e-004 
2.144538e-004 
2.142472e-004 
2.138228e-004 
2.129768e-004 
2.116873e-004 
2.101656e-004 
2.083706e-004 
2.061743e-004 
2.037178e-004 
2.011077e-004 
1.982473e-004 
1.951724e-004 
1.920298e-004 
1.888130e-004 
1.855136e-004 
1.822474e-004 
1.790601e-004 
1.759520e-004 
1.730112e-004 
1.702868e-004 
1.677738e-004 
1.655553e-004 
1.636834e-004 
1.621127e-004 
1.608971e-004 
1.601203e-004 
1.597053e-004 
1.596222e-004 
1.599766e-004 
1.607218e-004 
1.617265e-004 
1.630538e-004 
1.647370e-004 
1.666064e-004 
1.686153e-004 
1.708568e-004 
1.732252e-004 
1.755679e-004 
1.779547e-004 
1.804024e-004 
1.827400e-004 
1.849413e-004 
1.871096e-004 
1.891621e-004 
1.909839e-004 
1.926648e-004 
1.942524e-004 
1.956251e-004 
1.967842e-004 
1.978506e-004 
1.987885e-004 
1.995148e-004 
2.001239e-004 
2.006845e-004 
2.011103e-004 
2.013975e-004 
2.016635e-004 
2.018879e-004 
2.019927e-004 
2.020437e-004 
2.021090e-004 
2.020954e-004 
2.019756e-004 
2.018393e-004 
2.016834e-004 
2.013950e-004 
2.009733e-004 
1.000000e+000 
1.000000e+000 
1.207577e-004 
1.209488e-004 
1.211875e-004 
1.214253e-004 
1.216826e-004 
1.220258e-004 
1.223873e-004 
1.227276e-004 
1.231183e-004 
1.235860e-004 