# vtk DataFile Version 2.0
2D-ADE data file 
ASCII
DATASET RECTILINEAR_GRID
DIMENSIONS 128 128 1
X_COORDINATES 128 int
0 1 2 3 4 5 6 7 8 9 10 11 12 13 14 15 16 17 18 19 20 21 22 23 24 25 26 27 28 29 30 31 32 33 34 35 36 37 38 39 40 41 42 43 44 45 46 47 48 49 50 51 52 53 54 55 56 57 58 59 60 61 62 63 64 65 66 67 68 69 70 71 72 73 74 75 76 77 78 79 80 81 82 83 84 85 86 87 88 89 90 91 92 93 94 95 96 97 98 99 100 101 102 103 104 105 106 107 108 109 110 111 112 113 114 115 116 117 118 119 120 121 122 123 124 125 126 127 
Y_COORDINATES 128 int
0 1 2 3 4 5 6 7 8 9 10 11 12 13 14 15 16 17 18 19 20 21 22 23 24 25 26 27 28 29 30 31 32 33 34 35 36 37 38 39 40 41 42 43 44 45 46 47 48 49 50 51 52 53 54 55 56 57 58 59 60 61 62 63 64 65 66 67 68 69 70 71 72 73 74 75 76 77 78 79 80 81 82 83 84 85 86 87 88 89 90 91 92 93 94 95 96 97 98 99 100 101 102 103 104 105 106 107 108 109 110 111 112 113 114 115 116 117 118 119 120 121 122 123 124 125 126 127 
Z_COORDINATES 1 int
0
POINT_DATA 16384 
SCALARS density double 1
LOOKUP_TABLE default
1.000000e+000 
1.000000e+000 
1.000000e+000 
1.000000e+000 
1.000000e+000 
1.000000e+000 
1.000000e+000 
1.000000e+000 
1.000000e+000 
1.000000e+000 
1.000000e+000 
1.000000e+000 
1.000000e+000 
1.000000e+000 
1.000000e+000 
1.000000e+000 
1.000000e+000 
1.000000e+000 
1.000000e+000 
1.000000e+000 
1.000000e+000 
1.000000e+000 
1.000000e+000 
1.000000e+000 
1.000000e+000 
1.000000e+000 
1.000000e+000 
1.000000e+000 
1.000000e+000 
1.000000e+000 
1.000000e+000 
1.000000e+000 
1.000000e+000 
1.000000e+000 
1.000000e+000 
1.000000e+000 
1.000000e+000 
1.000000e+000 
1.000000e+000 
1.000000e+000 
1.000000e+000 
1.000000e+000 
1.000000e+000 
1.000000e+000 
1.000000e+000 
1.000000e+000 
1.000000e+000 
1.000000e+000 
1.000000e+000 
1.000000e+000 
1.000000e+000 
1.000000e+000 
1.000000e+000 
1.000000e+000 
1.000000e+000 
1.000000e+000 
1.000000e+000 
1.000000e+000 
1.000000e+000 
1.000000e+000 
1.000000e+000 
1.000000e+000 
1.000000e+000 
1.000000e+000 
1.000000e+000 
1.000000e+000 
1.000000e+000 
1.000000e+000 
1.000000e+000 
1.000000e+000 
1.000000e+000 
1.000000e+000 
1.000000e+000 
1.000000e+000 
1.000000e+000 
1.000000e+000 
1.000000e+000 
1.000000e+000 
1.000000e+000 
1.000000e+000 
1.000000e+000 
1.000000e+000 
1.000000e+000 
1.000000e+000 
1.000000e+000 
1.000000e+000 
1.000000e+000 
1.000000e+000 
1.000000e+000 
1.000000e+000 
1.000000e+000 
1.000000e+000 
1.000000e+000 
1.000000e+000 
1.000000e+000 
1.000000e+000 
1.000000e+000 
1.000000e+000 
1.000000e+000 
1.000000e+000 
1.000000e+000 
1.000000e+000 
1.000000e+000 
1.000000e+000 
1.000000e+000 
1.000000e+000 
1.000000e+000 
1.000000e+000 
1.000000e+000 
1.000000e+000 
1.000000e+000 
1.000000e+000 
1.000000e+000 
1.000000e+000 
1.000000e+000 
1.000000e+000 
1.000000e+000 
1.000000e+000 
1.000000e+000 
1.000000e+000 
1.000000e+000 
1.000000e+000 
1.000000e+000 
1.000000e+000 
1.000000e+000 
1.000000e+000 
1.000000e+000 
1.000000e+000 
1.000000e+000 
1.570591e-004 
1.570344e-004 
1.570713e-004 
1.571549e-004 
1.572134e-004 
1.572583e-004 
1.573581e-004 
1.574119e-004 
1.574272e-004 
1.574509e-004 
1.575013e-004 
1.574643e-004 
1.574209e-004 
1.574068e-004 
1.573704e-004 
1.572480e-004 
1.571702e-004 
1.571070e-004 
1.569746e-004 
1.568026e-004 
1.567076e-004 
1.565749e-004 
1.563626e-004 
1.561809e-004 
1.560591e-004 
1.558407e-004 
1.555865e-004 
1.554146e-004 
1.552342e-004 
1.549375e-004 
1.546851e-004 
1.545074e-004 
1.542386e-004 
1.539003e-004 
1.536728e-004 
1.534459e-004 
1.530877e-004 
1.527575e-004 
1.525379e-004 
1.522189e-004 
1.518097e-004 
1.515175e-004 
1.512546e-004 
1.508352e-004 
1.504337e-004 
1.501646e-004 
1.498059e-004 
1.493268e-004 
1.489735e-004 
1.486721e-004 
1.482048e-004 
1.477353e-004 
1.474218e-004 
1.470298e-004 
1.464996e-004 
1.460931e-004 
1.457650e-004 
1.452692e-004 
1.447578e-004 
1.444147e-004 
1.440141e-004 
1.434671e-004 
1.430402e-004 
1.427113e-004 
1.422290e-004 
1.417220e-004 
1.413885e-004 
1.410206e-004 
1.405143e-004 
1.401193e-004 
1.398361e-004 
1.394236e-004 
1.389855e-004 
1.387145e-004 
1.384330e-004 
1.380317e-004 
1.377294e-004 
1.375423e-004 
1.372564e-004 
1.369471e-004 
1.367882e-004 
1.366384e-004 
1.363917e-004 
1.362270e-004 
1.361707e-004 
1.360450e-004 
1.358966e-004 
1.358743e-004 
1.358722e-004 
1.357947e-004 
1.357766e-004 
1.358532e-004 
1.358812e-004 
1.358857e-004 
1.359849e-004 
1.361093e-004 
1.361711e-004 
1.362703e-004 
1.364420e-004 
1.365814e-004 
1.366889e-004 
1.368633e-004 
1.370571e-004 
1.372003e-004 
1.373531e-004 
1.375618e-004 
1.377411e-004 
1.378865e-004 
1.380648e-004 
1.382632e-004 
1.384089e-004 
1.385508e-004 
1.387203e-004 
1.388740e-004 
1.389766e-004 
1.390980e-004 
1.392217e-004 
1.393083e-004 
1.393581e-004 
1.394331e-004 
1.394797e-004 
1.394869e-004 
1.394737e-004 
1.394789e-004 
1.394491e-004 
1.394127e-004 
1.000000e+000 
1.000000e+000 
1.570404e-004 
1.570337e-004 
1.570491e-004 
1.571086e-004 
1.571749e-004 
1.571979e-004 
1.572678e-004 
1.573101e-004 
1.573453e-004 
1.573325e-004 
1.573656e-004 
1.573427e-004 
1.573111e-004 
1.572508e-004 
1.572231e-004 
1.571283e-004 
1.570365e-004 
1.569337e-004 
1.568407e-004 
1.566849e-004 
1.565497e-004 
1.564068e-004 
1.562514e-004 
1.560515e-004 
1.558844e-004 
1.556989e-004 
1.554888e-004 
1.552605e-004 
1.550634e-004 
1.548315e-004 
1.545791e-004 
1.543309e-004 
1.540980e-004 
1.538207e-004 
1.535383e-004 
1.532698e-004 
1.529946e-004 
1.526780e-004 
1.523733e-004 
1.520780e-004 
1.517583e-004 
1.514105e-004 
1.510855e-004 
1.507567e-004 
1.503950e-004 
1.500230e-004 
1.496762e-004 
1.493104e-004 
1.489121e-004 
1.485223e-004 
1.481528e-004 
1.477493e-004 
1.473231e-004 
1.469238e-004 
1.465312e-004 
1.460926e-004 
1.456543e-004 
1.452555e-004 
1.448378e-004 
1.443759e-004 
1.439495e-004 
1.435559e-004 
1.431136e-004 
1.426564e-004 
1.422656e-004 
1.418729e-004 
1.414216e-004 
1.410095e-004 
1.406628e-004 
1.402674e-004 
1.398459e-004 
1.395126e-004 
1.392000e-004 
1.388175e-004 
1.384769e-004 
1.382288e-004 
1.379381e-004 
1.376113e-004 
1.373868e-004 
1.372026e-004 
1.369437e-004 
1.367240e-004 
1.366127e-004 
1.364680e-004 
1.362782e-004 
1.361929e-004 
1.361595e-004 
1.360530e-004 
1.359740e-004 
1.360073e-004 
1.360139e-004 
1.359701e-004 
1.360160e-004 
1.361210e-004 
1.361525e-004 
1.361987e-004 
1.363431e-004 
1.364715e-004 
1.365375e-004 
1.366769e-004 
1.368664e-004 
1.369928e-004 
1.371077e-004 
1.373101e-004 
1.374927e-004 
1.376157e-004 
1.377768e-004 
1.379919e-004 
1.381360e-004 
1.382632e-004 
1.384433e-004 
1.386220e-004 
1.387189e-004 
1.388488e-004 
1.390043e-004 
1.391145e-004 
1.391673e-004 
1.392814e-004 
1.393675e-004 
1.393982e-004 
1.394099e-004 
1.394776e-004 
1.394671e-004 
1.394309e-004 
1.394237e-004 
1.394384e-004 
1.000000e+000 
1.000000e+000 
1.569665e-004 
1.570144e-004 
1.570365e-004 
1.570422e-004 
1.571027e-004 
1.571740e-004 
1.571841e-004 
1.571990e-004 
1.572603e-004 
1.572655e-004 
1.572222e-004 
1.572194e-004 
1.572220e-004 
1.571364e-004 
1.570541e-004 
1.570212e-004 
1.569355e-004 
1.567792e-004 
1.566828e-004 
1.565984e-004 
1.564205e-004 
1.562349e-004 
1.561291e-004 
1.559662e-004 
1.557214e-004 
1.555425e-004 
1.554026e-004 
1.551498e-004 
1.548838e-004 
1.547172e-004 
1.545046e-004 
1.541828e-004 
1.539367e-004 
1.537510e-004 
1.534432e-004 
1.531010e-004 
1.528827e-004 
1.526279e-004 
1.522417e-004 
1.519273e-004 
1.517017e-004 
1.513451e-004 
1.509337e-004 
1.506602e-004 
1.503689e-004 
1.499246e-004 
1.495452e-004 
1.492771e-004 
1.488807e-004 
1.484074e-004 
1.480809e-004 
1.477558e-004 
1.472683e-004 
1.468333e-004 
1.465277e-004 
1.461046e-004 
1.455919e-004 
1.452251e-004 
1.448805e-004 
1.443772e-004 
1.439158e-004 
1.435922e-004 
1.431719e-004 
1.426608e-004 
1.422883e-004 
1.419550e-004 
1.414826e-004 
1.410442e-004 
1.407424e-004 
1.403705e-004 
1.399194e-004 
1.395927e-004 
1.393172e-004 
1.389326e-004 
1.385774e-004 
1.383474e-004 
1.380753e-004 
1.377427e-004 
1.375152e-004 
1.373434e-004 
1.370957e-004 
1.368731e-004 
1.367564e-004 
1.366209e-004 
1.364438e-004 
1.363487e-004 
1.363062e-004 
1.362160e-004 
1.361442e-004 
1.361546e-004 
1.361605e-004 
1.361385e-004 
1.361734e-004 
1.362517e-004 
1.363002e-004 
1.363582e-004 
1.364723e-004 
1.365881e-004 
1.366813e-004 
1.368080e-004 
1.369639e-004 
1.370998e-004 
1.372329e-004 
1.373993e-004 
1.375651e-004 
1.377102e-004 
1.378657e-004 
1.380383e-004 
1.381919e-004 
1.383334e-004 
1.384852e-004 
1.386357e-004 
1.387610e-004 
1.388810e-004 
1.390027e-004 
1.391105e-004 
1.391921e-004 
1.392709e-004 
1.393417e-004 
1.393912e-004 
1.394156e-004 
1.394397e-004 
1.394515e-004 
1.394384e-004 
1.394108e-004 
1.393957e-004 
1.000000e+000 
1.000000e+000 
1.569084e-004 
1.569346e-004 
1.569763e-004 
1.570134e-004 
1.570402e-004 
1.570931e-004 
1.571281e-004 
1.571456e-004 
1.571500e-004 
1.571713e-004 
1.571553e-004 
1.571197e-004 
1.570823e-004 
1.570492e-004 
1.569680e-004 
1.568799e-004 
1.568002e-004 
1.567056e-004 
1.565644e-004 
1.564375e-004 
1.563162e-004 
1.561595e-004 
1.559739e-004 
1.558198e-004 
1.556522e-004 
1.554393e-004 
1.552276e-004 
1.550477e-004 
1.548268e-004 
1.545714e-004 
1.543467e-004 
1.541315e-004 
1.538556e-004 
1.535767e-004 
1.533402e-004 
1.530752e-004 
1.527535e-004 
1.524676e-004 
1.522070e-004 
1.518827e-004 
1.515349e-004 
1.512475e-004 
1.509420e-004 
1.505630e-004 
1.502121e-004 
1.499123e-004 
1.495444e-004 
1.491331e-004 
1.487931e-004 
1.484566e-004 
1.480267e-004 
1.476161e-004 
1.472818e-004 
1.468850e-004 
1.464197e-004 
1.460377e-004 
1.456844e-004 
1.452248e-004 
1.447711e-004 
1.444225e-004 
1.440220e-004 
1.435329e-004 
1.431354e-004 
1.427968e-004 
1.423450e-004 
1.418882e-004 
1.415618e-004 
1.412008e-004 
1.407371e-004 
1.403713e-004 
1.400920e-004 
1.397019e-004 
1.392979e-004 
1.390425e-004 
1.387717e-004 
1.383931e-004 
1.381124e-004 
1.379385e-004 
1.376636e-004 
1.373678e-004 
1.372259e-004 
1.370864e-004 
1.368411e-004 
1.366853e-004 
1.366448e-004 
1.365172e-004 
1.363617e-004 
1.363508e-004 
1.363555e-004 
1.362600e-004 
1.362367e-004 
1.363247e-004 
1.363410e-004 
1.363196e-004 
1.364221e-004 
1.365464e-004 
1.365782e-004 
1.366569e-004 
1.368352e-004 
1.369535e-004 
1.370249e-004 
1.371905e-004 
1.373817e-004 
1.374847e-004 
1.376103e-004 
1.378158e-004 
1.379745e-004 
1.380734e-004 
1.382404e-004 
1.384291e-004 
1.385389e-004 
1.386430e-004 
1.388142e-004 
1.389429e-004 
1.390084e-004 
1.391108e-004 
1.392407e-004 
1.392903e-004 
1.393218e-004 
1.393998e-004 
1.394536e-004 
1.394281e-004 
1.394334e-004 
1.394654e-004 
1.394357e-004 
1.393619e-004 
1.000000e+000 
1.000000e+000 
1.568365e-004 
1.568441e-004 
1.568944e-004 
1.569780e-004 
1.570014e-004 
1.570067e-004 
1.570616e-004 
1.571048e-004 
1.570723e-004 
1.570664e-004 
1.570901e-004 
1.570507e-004 
1.569673e-004 
1.569437e-004 
1.569002e-004 
1.567770e-004 
1.566700e-004 
1.566150e-004 
1.564845e-004 
1.563076e-004 
1.561964e-004 
1.560836e-004 
1.558715e-004 
1.556818e-004 
1.555587e-004 
1.553639e-004 
1.551029e-004 
1.549257e-004 
1.547582e-004 
1.544804e-004 
1.542154e-004 
1.540422e-004 
1.537954e-004 
1.534661e-004 
1.532266e-004 
1.530179e-004 
1.526831e-004 
1.523516e-004 
1.521290e-004 
1.518408e-004 
1.514489e-004 
1.511502e-004 
1.509002e-004 
1.505183e-004 
1.501234e-004 
1.498514e-004 
1.495243e-004 
1.490802e-004 
1.487236e-004 
1.484331e-004 
1.480126e-004 
1.475662e-004 
1.472461e-004 
1.468873e-004 
1.464081e-004 
1.460070e-004 
1.456825e-004 
1.452427e-004 
1.447701e-004 
1.444188e-004 
1.440466e-004 
1.435661e-004 
1.431520e-004 
1.428178e-004 
1.423937e-004 
1.419400e-004 
1.415941e-004 
1.412450e-004 
1.408131e-004 
1.404369e-004 
1.401352e-004 
1.397760e-004 
1.393988e-004 
1.391094e-004 
1.388314e-004 
1.385037e-004 
1.382211e-004 
1.380009e-004 
1.377552e-004 
1.375059e-004 
1.373213e-004 
1.371565e-004 
1.369731e-004 
1.368242e-004 
1.367212e-004 
1.366166e-004 
1.365200e-004 
1.364644e-004 
1.364297e-004 
1.363977e-004 
1.363892e-004 
1.364076e-004 
1.364370e-004 
1.364789e-004 
1.365405e-004 
1.366162e-004 
1.367048e-004 
1.368047e-004 
1.369135e-004 
1.370339e-004 
1.371660e-004 
1.372986e-004 
1.374358e-004 
1.375849e-004 
1.377353e-004 
1.378770e-004 
1.380265e-004 
1.381812e-004 
1.383231e-004 
1.384570e-004 
1.386007e-004 
1.387338e-004 
1.388473e-004 
1.389604e-004 
1.390757e-004 
1.391636e-004 
1.392386e-004 
1.393172e-004 
1.393811e-004 
1.394119e-004 
1.394448e-004 
1.394751e-004 
1.394753e-004 
1.394535e-004 
1.394359e-004 
1.394046e-004 
1.000000e+000 
1.000000e+000 
1.567207e-004 
1.568034e-004 
1.568438e-004 
1.568824e-004 
1.569467e-004 
1.569871e-004 
1.569946e-004 
1.570151e-004 
1.570408e-004 
1.570194e-004 
1.569833e-004 
1.569723e-004 
1.569358e-004 
1.568478e-004 
1.567781e-004 
1.567240e-004 
1.566135e-004 
1.564770e-004 
1.563845e-004 
1.562726e-004 
1.560942e-004 
1.559360e-004 
1.558170e-004 
1.556346e-004 
1.554124e-004 
1.552504e-004 
1.550853e-004 
1.548344e-004 
1.546004e-004 
1.544301e-004 
1.541966e-004 
1.538999e-004 
1.536767e-004 
1.534716e-004 
1.531628e-004 
1.528570e-004 
1.526415e-004 
1.523684e-004 
1.520048e-004 
1.517199e-004 
1.514812e-004 
1.511233e-004 
1.507471e-004 
1.504857e-004 
1.501807e-004 
1.497558e-004 
1.494081e-004 
1.491381e-004 
1.487406e-004 
1.482981e-004 
1.479916e-004 
1.476626e-004 
1.471883e-004 
1.467838e-004 
1.464897e-004 
1.460683e-004 
1.455759e-004 
1.452361e-004 
1.449005e-004 
1.444024e-004 
1.439646e-004 
1.436673e-004 
1.432521e-004 
1.427467e-004 
1.424046e-004 
1.420946e-004 
1.416174e-004 
1.411914e-004 
1.409285e-004 
1.405652e-004 
1.401024e-004 
1.398059e-004 
1.395657e-004 
1.391662e-004 
1.388099e-004 
1.386270e-004 
1.383655e-004 
1.380050e-004 
1.378037e-004 
1.376745e-004 
1.374036e-004 
1.371667e-004 
1.370990e-004 
1.369746e-004 
1.367575e-004 
1.366810e-004 
1.366826e-004 
1.365642e-004 
1.364667e-004 
1.365212e-004 
1.365375e-004 
1.364680e-004 
1.365111e-004 
1.366296e-004 
1.366480e-004 
1.366708e-004 
1.368191e-004 
1.369431e-004 
1.369854e-004 
1.371080e-004 
1.372969e-004 
1.374024e-004 
1.374934e-004 
1.376809e-004 
1.378530e-004 
1.379461e-004 
1.380868e-004 
1.382834e-004 
1.384096e-004 
1.385040e-004 
1.386672e-004 
1.388228e-004 
1.389006e-004 
1.389984e-004 
1.391424e-004 
1.392289e-004 
1.392680e-004 
1.393553e-004 
1.394421e-004 
1.394555e-004 
1.394657e-004 
1.395196e-004 
1.395262e-004 
1.394804e-004 
1.394670e-004 
1.394599e-004 
1.000000e+000 
1.000000e+000 
1.566044e-004 
1.567155e-004 
1.567981e-004 
1.568260e-004 
1.568836e-004 
1.569530e-004 
1.569593e-004 
1.569494e-004 
1.569855e-004 
1.569866e-004 
1.569257e-004 
1.568925e-004 
1.568823e-004 
1.568002e-004 
1.566952e-004 
1.566414e-004 
1.565620e-004 
1.564092e-004 
1.562875e-004 
1.561998e-004 
1.560410e-004 
1.558495e-004 
1.557225e-004 
1.555772e-004 
1.553509e-004 
1.551539e-004 
1.550081e-004 
1.547883e-004 
1.545268e-004 
1.543381e-004 
1.541433e-004 
1.538558e-004 
1.535950e-004 
1.533988e-004 
1.531306e-004 
1.528073e-004 
1.525628e-004 
1.523235e-004 
1.519847e-004 
1.516638e-004 
1.514189e-004 
1.511070e-004 
1.507296e-004 
1.504290e-004 
1.501458e-004 
1.497623e-004 
1.493867e-004 
1.490907e-004 
1.487391e-004 
1.483173e-004 
1.479640e-004 
1.476370e-004 
1.472204e-004 
1.468027e-004 
1.464599e-004 
1.460778e-004 
1.456323e-004 
1.452417e-004 
1.448822e-004 
1.444555e-004 
1.440247e-004 
1.436555e-004 
1.432676e-004 
1.428360e-004 
1.424431e-004 
1.420810e-004 
1.416850e-004 
1.412882e-004 
1.409338e-004 
1.405824e-004 
1.402166e-004 
1.398734e-004 
1.395562e-004 
1.392420e-004 
1.389350e-004 
1.386484e-004 
1.383835e-004 
1.381352e-004 
1.378948e-004 
1.376720e-004 
1.374837e-004 
1.373111e-004 
1.371374e-004 
1.369965e-004 
1.368960e-004 
1.367913e-004 
1.366925e-004 
1.366472e-004 
1.366223e-004 
1.365782e-004 
1.365671e-004 
1.366084e-004 
1.366358e-004 
1.366553e-004 
1.367316e-004 
1.368289e-004 
1.368925e-004 
1.369799e-004 
1.371196e-004 
1.372386e-004 
1.373349e-004 
1.374802e-004 
1.376429e-004 
1.377618e-004 
1.378898e-004 
1.380633e-004 
1.382109e-004 
1.383234e-004 
1.384715e-004 
1.386330e-004 
1.387431e-004 
1.388492e-004 
1.389915e-004 
1.391056e-004 
1.391744e-004 
1.392689e-004 
1.393720e-004 
1.394214e-004 
1.394557e-004 
1.395230e-004 
1.395597e-004 
1.395488e-004 
1.395552e-004 
1.395708e-004 
1.395262e-004 
1.394679e-004 
1.000000e+000 
1.000000e+000 
1.565581e-004 
1.566313e-004 
1.567210e-004 
1.568130e-004 
1.568478e-004 
1.568751e-004 
1.569347e-004 
1.569538e-004 
1.569202e-004 
1.569190e-004 
1.569269e-004 
1.568621e-004 
1.567856e-004 
1.567604e-004 
1.566939e-004 
1.565585e-004 
1.564672e-004 
1.564030e-004 
1.562515e-004 
1.560806e-004 
1.559859e-004 
1.558553e-004 
1.556334e-004 
1.554646e-004 
1.553492e-004 
1.551329e-004 
1.548797e-004 
1.547285e-004 
1.545546e-004 
1.542617e-004 
1.540220e-004 
1.538678e-004 
1.536037e-004 
1.532753e-004 
1.530707e-004 
1.528656e-004 
1.525125e-004 
1.522020e-004 
1.520119e-004 
1.517108e-004 
1.513114e-004 
1.510503e-004 
1.508186e-004 
1.504137e-004 
1.500317e-004 
1.498033e-004 
1.494725e-004 
1.490082e-004 
1.486882e-004 
1.484316e-004 
1.479858e-004 
1.475380e-004 
1.472714e-004 
1.469201e-004 
1.464067e-004 
1.460358e-004 
1.457618e-004 
1.452952e-004 
1.448035e-004 
1.445122e-004 
1.441603e-004 
1.436308e-004 
1.432372e-004 
1.429682e-004 
1.425172e-004 
1.420260e-004 
1.417433e-004 
1.414263e-004 
1.409332e-004 
1.405664e-004 
1.403410e-004 
1.399562e-004 
1.395264e-004 
1.393003e-004 
1.390638e-004 
1.386678e-004 
1.383852e-004 
1.382472e-004 
1.379794e-004 
1.376691e-004 
1.375445e-004 
1.374273e-004 
1.371758e-004 
1.370199e-004 
1.369985e-004 
1.368779e-004 
1.367186e-004 
1.367158e-004 
1.367307e-004 
1.366367e-004 
1.366149e-004 
1.367083e-004 
1.367279e-004 
1.367091e-004 
1.368116e-004 
1.369352e-004 
1.369694e-004 
1.370491e-004 
1.372201e-004 
1.373359e-004 
1.374092e-004 
1.375679e-004 
1.377464e-004 
1.378489e-004 
1.379702e-004 
1.381595e-004 
1.383065e-004 
1.384050e-004 
1.385566e-004 
1.387260e-004 
1.388291e-004 
1.389274e-004 
1.390743e-004 
1.391907e-004 
1.392528e-004 
1.393419e-004 
1.394494e-004 
1.395005e-004 
1.395277e-004 
1.395910e-004 
1.396363e-004 
1.396240e-004 
1.396191e-004 
1.396398e-004 
1.396150e-004 
1.395462e-004 
1.000000e+000 
1.000000e+000 
1.564840e-004 
1.565716e-004 
1.566632e-004 
1.567735e-004 
1.568361e-004 
1.568523e-004 
1.568934e-004 
1.569361e-004 
1.569162e-004 
1.568845e-004 
1.568856e-004 
1.568533e-004 
1.567669e-004 
1.567051e-004 
1.566576e-004 
1.565508e-004 
1.564234e-004 
1.563383e-004 
1.562304e-004 
1.560637e-004 
1.559185e-004 
1.558019e-004 
1.556286e-004 
1.554273e-004 
1.552730e-004 
1.551083e-004 
1.548794e-004 
1.546673e-004 
1.544940e-004 
1.542698e-004 
1.540079e-004 
1.537944e-004 
1.535813e-004 
1.533023e-004 
1.530311e-004 
1.528054e-004 
1.525368e-004 
1.522232e-004 
1.519520e-004 
1.516922e-004 
1.513697e-004 
1.510435e-004 
1.507629e-004 
1.504526e-004 
1.500935e-004 
1.497645e-004 
1.494553e-004 
1.490956e-004 
1.487197e-004 
1.483819e-004 
1.480327e-004 
1.476389e-004 
1.472564e-004 
1.468996e-004 
1.465151e-004 
1.461044e-004 
1.457165e-004 
1.453409e-004 
1.449355e-004 
1.445188e-004 
1.441308e-004 
1.437486e-004 
1.433351e-004 
1.429242e-004 
1.425530e-004 
1.421763e-004 
1.417657e-004 
1.413847e-004 
1.410489e-004 
1.406823e-004 
1.402970e-004 
1.399781e-004 
1.396822e-004 
1.393335e-004 
1.390132e-004 
1.387749e-004 
1.385100e-004 
1.382075e-004 
1.379912e-004 
1.378231e-004 
1.375890e-004 
1.373788e-004 
1.372754e-004 
1.371510e-004 
1.369741e-004 
1.368904e-004 
1.368704e-004 
1.367776e-004 
1.366991e-004 
1.367351e-004 
1.367547e-004 
1.367110e-004 
1.367523e-004 
1.368615e-004 
1.368967e-004 
1.369309e-004 
1.370712e-004 
1.371987e-004 
1.372547e-004 
1.373761e-004 
1.375613e-004 
1.376742e-004 
1.377686e-004 
1.379513e-004 
1.381238e-004 
1.382190e-004 
1.383563e-004 
1.385492e-004 
1.386740e-004 
1.387640e-004 
1.389232e-004 
1.390747e-004 
1.391464e-004 
1.392391e-004 
1.393809e-004 
1.394601e-004 
1.394930e-004 
1.395801e-004 
1.396645e-004 
1.396686e-004 
1.396801e-004 
1.397388e-004 
1.397417e-004 
1.396883e-004 
1.396808e-004 
1.396810e-004 
1.000000e+000 
1.000000e+000 
1.563923e-004 
1.565653e-004 
1.566636e-004 
1.567109e-004 
1.568047e-004 
1.568870e-004 
1.568835e-004 
1.568853e-004 
1.569331e-004 
1.569154e-004 
1.568391e-004 
1.568225e-004 
1.568071e-004 
1.566944e-004 
1.565903e-004 
1.565568e-004 
1.564541e-004 
1.562780e-004 
1.561804e-004 
1.561028e-004 
1.559078e-004 
1.557178e-004 
1.556280e-004 
1.554692e-004 
1.552109e-004 
1.550473e-004 
1.549297e-004 
1.546731e-004 
1.544059e-004 
1.542717e-004 
1.540750e-004 
1.537458e-004 
1.535187e-004 
1.533715e-004 
1.530664e-004 
1.527250e-004 
1.525461e-004 
1.523214e-004 
1.519285e-004 
1.516349e-004 
1.514582e-004 
1.511137e-004 
1.506993e-004 
1.504701e-004 
1.502202e-004 
1.497712e-004 
1.494082e-004 
1.491978e-004 
1.488206e-004 
1.483400e-004 
1.480567e-004 
1.477827e-004 
1.472904e-004 
1.468654e-004 
1.466208e-004 
1.462224e-004 
1.456960e-004 
1.453682e-004 
1.450789e-004 
1.445696e-004 
1.441097e-004 
1.438459e-004 
1.434514e-004 
1.429205e-004 
1.425801e-004 
1.423012e-004 
1.418197e-004 
1.413760e-004 
1.411287e-004 
1.407799e-004 
1.403048e-004 
1.400043e-004 
1.397777e-004 
1.393814e-004 
1.390179e-004 
1.388359e-004 
1.385823e-004 
1.382261e-004 
1.380211e-004 
1.378909e-004 
1.376315e-004 
1.374021e-004 
1.373266e-004 
1.372056e-004 
1.370090e-004 
1.369340e-004 
1.369254e-004 
1.368248e-004 
1.367487e-004 
1.367921e-004 
1.368082e-004 
1.367697e-004 
1.368199e-004 
1.369222e-004 
1.369596e-004 
1.370107e-004 
1.371467e-004 
1.372646e-004 
1.373393e-004 
1.374702e-004 
1.376374e-004 
1.377559e-004 
1.378741e-004 
1.380460e-004 
1.382041e-004 
1.383225e-004 
1.384688e-004 
1.386374e-004 
1.387674e-004 
1.388828e-004 
1.390272e-004 
1.391612e-004 
1.392571e-004 
1.393572e-004 
1.394711e-004 
1.395558e-004 
1.396143e-004 
1.396836e-004 
1.397499e-004 
1.397811e-004 
1.397983e-004 
1.398259e-004 
1.398371e-004 
1.398148e-004 
1.397911e-004 
1.397719e-004 
1.000000e+000 
1.000000e+000 
1.563549e-004 
1.565077e-004 
1.566493e-004 
1.567324e-004 
1.567974e-004 
1.568736e-004 
1.569149e-004 
1.569100e-004 
1.569162e-004 
1.569263e-004 
1.568848e-004 
1.568206e-004 
1.567845e-004 
1.567297e-004 
1.566213e-004 
1.565222e-004 
1.564485e-004 
1.563294e-004 
1.561749e-004 
1.560566e-004 
1.559391e-004 
1.557615e-004 
1.555835e-004 
1.554477e-004 
1.552770e-004 
1.550559e-004 
1.548703e-004 
1.547057e-004 
1.544787e-004 
1.542349e-004 
1.540439e-004 
1.538342e-004 
1.535597e-004 
1.533108e-004 
1.531024e-004 
1.528368e-004 
1.525330e-004 
1.522846e-004 
1.520395e-004 
1.517196e-004 
1.514057e-004 
1.511498e-004 
1.508511e-004 
1.504906e-004 
1.501786e-004 
1.498974e-004 
1.495388e-004 
1.491582e-004 
1.488496e-004 
1.485233e-004 
1.481123e-004 
1.477340e-004 
1.474189e-004 
1.470334e-004 
1.465932e-004 
1.462349e-004 
1.458944e-004 
1.454510e-004 
1.450186e-004 
1.446849e-004 
1.442980e-004 
1.438241e-004 
1.434394e-004 
1.431142e-004 
1.426759e-004 
1.422261e-004 
1.419096e-004 
1.415643e-004 
1.411059e-004 
1.407417e-004 
1.404780e-004 
1.400991e-004 
1.396904e-004 
1.394427e-004 
1.391914e-004 
1.388114e-004 
1.385266e-004 
1.383731e-004 
1.381099e-004 
1.378042e-004 
1.376729e-004 
1.375581e-004 
1.373102e-004 
1.371513e-004 
1.371372e-004 
1.370241e-004 
1.368597e-004 
1.368639e-004 
1.368970e-004 
1.368007e-004 
1.367769e-004 
1.368938e-004 
1.369249e-004 
1.368960e-004 
1.370132e-004 
1.371640e-004 
1.371932e-004 
1.372695e-004 
1.374702e-004 
1.375986e-004 
1.376573e-004 
1.378300e-004 
1.380368e-004 
1.381307e-004 
1.382437e-004 
1.384600e-004 
1.386169e-004 
1.386953e-004 
1.388551e-004 
1.390487e-004 
1.391391e-004 
1.392231e-004 
1.393918e-004 
1.395146e-004 
1.395527e-004 
1.396455e-004 
1.397747e-004 
1.398114e-004 
1.398221e-004 
1.399060e-004 
1.399587e-004 
1.399237e-004 
1.399249e-004 
1.399690e-004 
1.399297e-004 
1.398526e-004 
1.000000e+000 
1.000000e+000 
1.563846e-004 
1.564973e-004 
1.566229e-004 
1.567763e-004 
1.568403e-004 
1.568592e-004 
1.569390e-004 
1.569873e-004 
1.569375e-004 
1.569177e-004 
1.569470e-004 
1.568841e-004 
1.567730e-004 
1.567456e-004 
1.567010e-004 
1.565447e-004 
1.564263e-004 
1.563829e-004 
1.562417e-004 
1.560384e-004 
1.559419e-004 
1.558436e-004 
1.556116e-004 
1.554175e-004 
1.553288e-004 
1.551365e-004 
1.548575e-004 
1.547056e-004 
1.545737e-004 
1.542821e-004 
1.540184e-004 
1.538933e-004 
1.536642e-004 
1.533162e-004 
1.531089e-004 
1.529502e-004 
1.526081e-004 
1.522742e-004 
1.521099e-004 
1.518500e-004 
1.514372e-004 
1.511686e-004 
1.509805e-004 
1.505939e-004 
1.501893e-004 
1.499775e-004 
1.496872e-004 
1.492161e-004 
1.488823e-004 
1.486581e-004 
1.482336e-004 
1.477658e-004 
1.475019e-004 
1.471823e-004 
1.466686e-004 
1.462786e-004 
1.460181e-004 
1.455713e-004 
1.450658e-004 
1.447612e-004 
1.444248e-004 
1.439024e-004 
1.434882e-004 
1.432100e-004 
1.427738e-004 
1.422798e-004 
1.419705e-004 
1.416498e-004 
1.411731e-004 
1.407908e-004 
1.405355e-004 
1.401608e-004 
1.397448e-004 
1.394860e-004 
1.392298e-004 
1.388622e-004 
1.385768e-004 
1.383963e-004 
1.381377e-004 
1.378615e-004 
1.377075e-004 
1.375626e-004 
1.373530e-004 
1.372117e-004 
1.371459e-004 
1.370370e-004 
1.369304e-004 
1.369085e-004 
1.368950e-004 
1.368526e-004 
1.368613e-004 
1.369154e-004 
1.369480e-004 
1.369924e-004 
1.370866e-004 
1.371827e-004 
1.372688e-004 
1.373872e-004 
1.375243e-004 
1.376484e-004 
1.377832e-004 
1.379393e-004 
1.380882e-004 
1.382328e-004 
1.383915e-004 
1.385484e-004 
1.386937e-004 
1.388433e-004 
1.389926e-004 
1.391277e-004 
1.392589e-004 
1.393888e-004 
1.395033e-004 
1.396080e-004 
1.397106e-004 
1.397974e-004 
1.398684e-004 
1.399380e-004 
1.399945e-004 
1.400280e-004 
1.400586e-004 
1.400844e-004 
1.400825e-004 
1.400694e-004 
1.400647e-004 
1.400350e-004 
1.000000e+000 
1.000000e+000 
1.563605e-004 
1.565336e-004 
1.566636e-004 
1.567801e-004 
1.568894e-004 
1.569460e-004 
1.569689e-004 
1.570093e-004 
1.570310e-004 
1.569917e-004 
1.569531e-004 
1.569416e-004 
1.568810e-004 
1.567741e-004 
1.567070e-004 
1.566451e-004 
1.565089e-004 
1.563692e-004 
1.562868e-004 
1.561624e-004 
1.559693e-004 
1.558268e-004 
1.557182e-004 
1.555223e-004 
1.553043e-004 
1.551697e-004 
1.550087e-004 
1.547511e-004 
1.545411e-004 
1.543984e-004 
1.541626e-004 
1.538742e-004 
1.536876e-004 
1.535011e-004 
1.531906e-004 
1.529104e-004 
1.527324e-004 
1.524669e-004 
1.521104e-004 
1.518631e-004 
1.516525e-004 
1.512965e-004 
1.509396e-004 
1.507176e-004 
1.504276e-004 
1.500050e-004 
1.496861e-004 
1.494483e-004 
1.490539e-004 
1.486177e-004 
1.483436e-004 
1.480340e-004 
1.475536e-004 
1.471608e-004 
1.468969e-004 
1.464783e-004 
1.459743e-004 
1.456530e-004 
1.453384e-004 
1.448244e-004 
1.443770e-004 
1.441044e-004 
1.436912e-004 
1.431559e-004 
1.428172e-004 
1.425294e-004 
1.420284e-004 
1.415745e-004 
1.413326e-004 
1.409727e-004 
1.404678e-004 
1.401661e-004 
1.399524e-004 
1.395275e-004 
1.391359e-004 
1.389770e-004 
1.387251e-004 
1.383224e-004 
1.381188e-004 
1.380253e-004 
1.377365e-004 
1.374711e-004 
1.374371e-004 
1.373335e-004 
1.370860e-004 
1.370189e-004 
1.370670e-004 
1.369441e-004 
1.368330e-004 
1.369310e-004 
1.369786e-004 
1.368938e-004 
1.369567e-004 
1.371267e-004 
1.371514e-004 
1.371710e-004 
1.373640e-004 
1.375214e-004 
1.375561e-004 
1.376978e-004 
1.379322e-004 
1.380445e-004 
1.381310e-004 
1.383521e-004 
1.385498e-004 
1.386317e-004 
1.387801e-004 
1.390073e-004 
1.391334e-004 
1.392136e-004 
1.393942e-004 
1.395640e-004 
1.396244e-004 
1.397166e-004 
1.398793e-004 
1.399613e-004 
1.399812e-004 
1.400758e-004 
1.401756e-004 
1.401731e-004 
1.401757e-004 
1.402480e-004 
1.402615e-004 
1.401983e-004 
1.401934e-004 
1.402163e-004 
1.000000e+000 
1.000000e+000 
1.563612e-004 
1.565974e-004 
1.567553e-004 
1.568186e-004 
1.569274e-004 
1.570509e-004 
1.570634e-004 
1.570486e-004 
1.571067e-004 
1.571135e-004 
1.570221e-004 
1.569838e-004 
1.569875e-004 
1.568828e-004 
1.567477e-004 
1.567084e-004 
1.566323e-004 
1.564453e-004 
1.563191e-004 
1.562598e-004 
1.560868e-004 
1.558707e-004 
1.557716e-004 
1.556490e-004 
1.553953e-004 
1.552032e-004 
1.551042e-004 
1.548849e-004 
1.546018e-004 
1.544538e-004 
1.542989e-004 
1.539902e-004 
1.537363e-004 
1.536022e-004 
1.533451e-004 
1.529991e-004 
1.527998e-004 
1.526140e-004 
1.522551e-004 
1.519371e-004 
1.517613e-004 
1.514674e-004 
1.510602e-004 
1.508018e-004 
1.505780e-004 
1.501718e-004 
1.497883e-004 
1.495599e-004 
1.492263e-004 
1.487642e-004 
1.484422e-004 
1.481718e-004 
1.477252e-004 
1.472855e-004 
1.469999e-004 
1.466290e-004 
1.461315e-004 
1.457575e-004 
1.454430e-004 
1.449770e-004 
1.445117e-004 
1.441843e-004 
1.437957e-004 
1.433044e-004 
1.429157e-004 
1.425828e-004 
1.421406e-004 
1.417054e-004 
1.413786e-004 
1.410157e-004 
1.405931e-004 
1.402504e-004 
1.399492e-004 
1.395912e-004 
1.392555e-004 
1.389900e-004 
1.387110e-004 
1.384230e-004 
1.381910e-004 
1.379803e-004 
1.377635e-004 
1.375840e-004 
1.374348e-004 
1.372885e-004 
1.371755e-004 
1.370949e-004 
1.370138e-004 
1.369622e-004 
1.369552e-004 
1.369438e-004 
1.369409e-004 
1.369943e-004 
1.370588e-004 
1.371026e-004 
1.371899e-004 
1.373195e-004 
1.374188e-004 
1.375212e-004 
1.376836e-004 
1.378404e-004 
1.379591e-004 
1.381183e-004 
1.383115e-004 
1.384579e-004 
1.385962e-004 
1.387871e-004 
1.389610e-004 
1.390847e-004 
1.392389e-004 
1.394179e-004 
1.395412e-004 
1.396474e-004 
1.397968e-004 
1.399223e-004 
1.399918e-004 
1.400848e-004 
1.401961e-004 
1.402476e-004 
1.402792e-004 
1.403502e-004 
1.403930e-004 
1.403781e-004 
1.403886e-004 
1.404160e-004 
1.403811e-004 
1.403275e-004 
1.000000e+000 
1.000000e+000 
1.564618e-004 
1.566258e-004 
1.568058e-004 
1.569598e-004 
1.570324e-004 
1.570938e-004 
1.571815e-004 
1.572053e-004 
1.571719e-004 
1.571828e-004 