# vtk DataFile Version 2.0
2D-ADE data file 
ASCII
DATASET RECTILINEAR_GRID
DIMENSIONS 128 128 1
X_COORDINATES 128 int
0 1 2 3 4 5 6 7 8 9 10 11 12 13 14 15 16 17 18 19 20 21 22 23 24 25 26 27 28 29 30 31 32 33 34 35 36 37 38 39 40 41 42 43 44 45 46 47 48 49 50 51 52 53 54 55 56 57 58 59 60 61 62 63 64 65 66 67 68 69 70 71 72 73 74 75 76 77 78 79 80 81 82 83 84 85 86 87 88 89 90 91 92 93 94 95 96 97 98 99 100 101 102 103 104 105 106 107 108 109 110 111 112 113 114 115 116 117 118 119 120 121 122 123 124 125 126 127 
Y_COORDINATES 128 int
0 1 2 3 4 5 6 7 8 9 10 11 12 13 14 15 16 17 18 19 20 21 22 23 24 25 26 27 28 29 30 31 32 33 34 35 36 37 38 39 40 41 42 43 44 45 46 47 48 49 50 51 52 53 54 55 56 57 58 59 60 61 62 63 64 65 66 67 68 69 70 71 72 73 74 75 76 77 78 79 80 81 82 83 84 85 86 87 88 89 90 91 92 93 94 95 96 97 98 99 100 101 102 103 104 105 106 107 108 109 110 111 112 113 114 115 116 117 118 119 120 121 122 123 124 125 126 127 
Z_COORDINATES 1 int
0
POINT_DATA 16384 
SCALARS density double 1
LOOKUP_TABLE default
1.000000e+000 
1.000000e+000 
1.000000e+000 
1.000000e+000 
1.000000e+000 
1.000000e+000 
1.000000e+000 
1.000000e+000 
1.000000e+000 
1.000000e+000 
1.000000e+000 
1.000000e+000 
1.000000e+000 
1.000000e+000 
1.000000e+000 
1.000000e+000 
1.000000e+000 
1.000000e+000 
1.000000e+000 
1.000000e+000 
1.000000e+000 
1.000000e+000 
1.000000e+000 
1.000000e+000 
1.000000e+000 
1.000000e+000 
1.000000e+000 
1.000000e+000 
1.000000e+000 
1.000000e+000 
1.000000e+000 
1.000000e+000 
1.000000e+000 
1.000000e+000 
1.000000e+000 
1.000000e+000 
1.000000e+000 
1.000000e+000 
1.000000e+000 
1.000000e+000 
1.000000e+000 
1.000000e+000 
1.000000e+000 
1.000000e+000 
1.000000e+000 
1.000000e+000 
1.000000e+000 
1.000000e+000 
1.000000e+000 
1.000000e+000 
1.000000e+000 
1.000000e+000 
1.000000e+000 
1.000000e+000 
1.000000e+000 
1.000000e+000 
1.000000e+000 
1.000000e+000 
1.000000e+000 
1.000000e+000 
1.000000e+000 
1.000000e+000 
1.000000e+000 
1.000000e+000 
1.000000e+000 
1.000000e+000 
1.000000e+000 
1.000000e+000 
1.000000e+000 
1.000000e+000 
1.000000e+000 
1.000000e+000 
1.000000e+000 
1.000000e+000 
1.000000e+000 
1.000000e+000 
1.000000e+000 
1.000000e+000 
1.000000e+000 
1.000000e+000 
1.000000e+000 
1.000000e+000 
1.000000e+000 
1.000000e+000 
1.000000e+000 
1.000000e+000 
1.000000e+000 
1.000000e+000 
1.000000e+000 
1.000000e+000 
1.000000e+000 
1.000000e+000 
1.000000e+000 
1.000000e+000 
1.000000e+000 
1.000000e+000 
1.000000e+000 
1.000000e+000 
1.000000e+000 
1.000000e+000 
1.000000e+000 
1.000000e+000 
1.000000e+000 
1.000000e+000 
1.000000e+000 
1.000000e+000 
1.000000e+000 
1.000000e+000 
1.000000e+000 
1.000000e+000 
1.000000e+000 
1.000000e+000 
1.000000e+000 
1.000000e+000 
1.000000e+000 
1.000000e+000 
1.000000e+000 
1.000000e+000 
1.000000e+000 
1.000000e+000 
1.000000e+000 
1.000000e+000 
1.000000e+000 
1.000000e+000 
1.000000e+000 
1.000000e+000 
1.000000e+000 
1.000000e+000 
1.000000e+000 
1.570798e-004 
1.570483e-004 
1.570810e-004 
1.571822e-004 
1.572520e-004 
1.572973e-004 
1.574080e-004 
1.574796e-004 
1.575047e-004 
1.575387e-004 
1.576059e-004 
1.575850e-004 
1.575533e-004 
1.575536e-004 
1.575323e-004 
1.574222e-004 
1.573545e-004 
1.573021e-004 
1.571780e-004 
1.570114e-004 
1.569198e-004 
1.567891e-004 
1.565751e-004 
1.563892e-004 
1.562609e-004 
1.560336e-004 
1.557670e-004 
1.555806e-004 
1.553835e-004 
1.550676e-004 
1.547933e-004 
1.545924e-004 
1.542985e-004 
1.539331e-004 
1.536771e-004 
1.534212e-004 
1.530326e-004 
1.526710e-004 
1.524199e-004 
1.520695e-004 
1.516281e-004 
1.513041e-004 
1.510102e-004 
1.505602e-004 
1.501282e-004 
1.498300e-004 
1.494434e-004 
1.489370e-004 
1.485577e-004 
1.482317e-004 
1.477412e-004 
1.472494e-004 
1.469150e-004 
1.465035e-004 
1.459549e-004 
1.455308e-004 
1.451861e-004 
1.446746e-004 
1.441479e-004 
1.437898e-004 
1.433745e-004 
1.428128e-004 
1.423706e-004 
1.420261e-004 
1.415271e-004 
1.410023e-004 
1.406499e-004 
1.402615e-004 
1.397328e-004 
1.393133e-004 
1.390039e-004 
1.385626e-004 
1.380929e-004 
1.377885e-004 
1.374711e-004 
1.370304e-004 
1.366865e-004 
1.364562e-004 
1.361238e-004 
1.357649e-004 
1.355556e-004 
1.353533e-004 
1.350509e-004 
1.348294e-004 
1.347164e-004 
1.345314e-004 
1.343221e-004 
1.342400e-004 
1.341781e-004 
1.340388e-004 
1.339602e-004 
1.339784e-004 
1.339481e-004 
1.338942e-004 
1.339389e-004 
1.340109e-004 
1.340210e-004 
1.340712e-004 
1.341989e-004 
1.342960e-004 
1.343637e-004 
1.345031e-004 
1.346666e-004 
1.347810e-004 
1.349099e-004 
1.350996e-004 
1.352637e-004 
1.353957e-004 
1.355671e-004 
1.357624e-004 
1.359071e-004 
1.360505e-004 
1.362292e-004 
1.363918e-004 
1.365044e-004 
1.366407e-004 
1.367851e-004 
1.368857e-004 
1.369530e-004 
1.370532e-004 
1.371214e-004 
1.371388e-004 
1.371473e-004 
1.371777e-004 
1.371471e-004 
1.371038e-004 
1.000000e+000 
1.000000e+000 
1.570506e-004 
1.570512e-004 
1.570635e-004 
1.571293e-004 
1.572096e-004 
1.572412e-004 
1.573183e-004 
1.573746e-004 
1.574245e-004 
1.574243e-004 
1.574703e-004 
1.574641e-004 
1.574473e-004 
1.574008e-004 
1.573862e-004 
1.573056e-004 
1.572249e-004 
1.571316e-004 
1.570466e-004 
1.568980e-004 
1.567656e-004 
1.566240e-004 
1.564676e-004 
1.562645e-004 
1.560898e-004 
1.558956e-004 
1.556742e-004 
1.554313e-004 
1.552164e-004 
1.549665e-004 
1.546926e-004 
1.544203e-004 
1.541620e-004 
1.538591e-004 
1.535475e-004 
1.532489e-004 
1.529441e-004 
1.525968e-004 
1.522591e-004 
1.519320e-004 
1.515812e-004 
1.512010e-004 
1.508433e-004 
1.504845e-004 
1.500928e-004 
1.496901e-004 
1.493145e-004 
1.489223e-004 
1.484970e-004 
1.480811e-004 
1.476884e-004 
1.472626e-004 
1.468139e-004 
1.463943e-004 
1.459833e-004 
1.455262e-004 
1.450699e-004 
1.446551e-004 
1.442215e-004 
1.437434e-004 
1.433015e-004 
1.428927e-004 
1.424342e-004 
1.419603e-004 
1.415524e-004 
1.411412e-004 
1.406701e-004 
1.402371e-004 
1.398673e-004 
1.394468e-004 
1.389988e-004 
1.386363e-004 
1.382916e-004 
1.378756e-004 
1.374991e-004 
1.372113e-004 
1.368791e-004 
1.365092e-004 
1.362383e-004 
1.360048e-004 
1.356961e-004 
1.354243e-004 
1.352578e-004 
1.350570e-004 
1.348113e-004 
1.346674e-004 
1.345742e-004 
1.344088e-004 
1.342710e-004 
1.342437e-004 
1.341913e-004 
1.340900e-004 
1.340790e-004 
1.341271e-004 
1.341056e-004 
1.341002e-004 
1.341948e-004 
1.342756e-004 
1.342990e-004 
1.343971e-004 
1.345490e-004 
1.346411e-004 
1.347269e-004 
1.349019e-004 
1.350622e-004 
1.351663e-004 
1.353135e-004 
1.355163e-004 
1.356544e-004 
1.357774e-004 
1.359582e-004 
1.361391e-004 
1.362443e-004 
1.363816e-004 
1.365499e-004 
1.366737e-004 
1.367437e-004 
1.368716e-004 
1.369787e-004 
1.370284e-004 
1.370573e-004 
1.371393e-004 
1.371508e-004 
1.371275e-004 
1.371200e-004 
1.371418e-004 
1.000000e+000 
1.000000e+000 
1.569634e-004 
1.570211e-004 
1.570603e-004 
1.570649e-004 
1.571287e-004 
1.572178e-004 
1.572403e-004 
1.572617e-004 
1.573378e-004 
1.573612e-004 
1.573306e-004 
1.573411e-004 
1.573608e-004 
1.572907e-004 
1.572207e-004 
1.572012e-004 
1.571282e-004 
1.569817e-004 
1.568930e-004 
1.568152e-004 
1.566416e-004 
1.564572e-004 
1.563501e-004 
1.561839e-004 
1.559328e-004 
1.557445e-004 
1.555929e-004 
1.553261e-004 
1.550431e-004 
1.548570e-004 
1.546233e-004 
1.542783e-004 
1.540063e-004 
1.537936e-004 
1.534578e-004 
1.530858e-004 
1.528364e-004 
1.525504e-004 
1.521325e-004 
1.517853e-004 
1.515271e-004 
1.511387e-004 
1.506952e-004 
1.503897e-004 
1.500676e-004 
1.495937e-004 
1.491847e-004 
1.488881e-004 
1.484651e-004 
1.479661e-004 
1.476146e-004 
1.472661e-004 
1.467568e-004 
1.463007e-004 
1.459749e-004 
1.455331e-004 
1.450026e-004 
1.446183e-004 
1.442569e-004 
1.437375e-004 
1.432598e-004 
1.429198e-004 
1.424830e-004 
1.419548e-004 
1.415642e-004 
1.412121e-004 
1.407195e-004 
1.402592e-004 
1.399343e-004 
1.395373e-004 
1.390584e-004 
1.387024e-004 
1.383957e-004 
1.379766e-004 
1.375844e-004 
1.373162e-004 
1.370030e-004 
1.366256e-004 
1.363523e-004 
1.361333e-004 
1.358346e-004 
1.355590e-004 
1.353897e-004 
1.351993e-004 
1.349641e-004 
1.348118e-004 
1.347125e-004 
1.345627e-004 
1.344310e-004 
1.343843e-004 
1.343328e-004 
1.342519e-004 
1.342309e-004 
1.342563e-004 
1.342512e-004 
1.342573e-004 
1.343245e-004 
1.343953e-004 
1.344442e-004 
1.345312e-004 
1.346524e-004 
1.347550e-004 
1.348578e-004 
1.349997e-004 
1.351448e-004 
1.352708e-004 
1.354122e-004 
1.355760e-004 
1.357228e-004 
1.358599e-004 
1.360136e-004 
1.361686e-004 
1.362985e-004 
1.364276e-004 
1.365640e-004 
1.366835e-004 
1.367777e-004 
1.368765e-004 
1.369668e-004 
1.370274e-004 
1.370697e-004 
1.371182e-004 
1.371395e-004 
1.371299e-004 
1.371220e-004 
1.371183e-004 
1.000000e+000 
1.000000e+000 
1.569170e-004 
1.569438e-004 
1.569929e-004 
1.570391e-004 
1.570730e-004 
1.571349e-004 
1.571832e-004 
1.572139e-004 
1.572309e-004 
1.572665e-004 
1.572671e-004 
1.572466e-004 
1.572238e-004 
1.572059e-004 
1.571399e-004 
1.570643e-004 
1.569963e-004 
1.569126e-004 
1.567801e-004 
1.566587e-004 
1.565418e-004 
1.563873e-004 
1.562003e-004 
1.560420e-004 
1.558690e-004 
1.556469e-004 
1.554228e-004 
1.552289e-004 
1.549919e-004 
1.547165e-004 
1.544699e-004 
1.542321e-004 
1.539308e-004 
1.536236e-004 
1.533590e-004 
1.530649e-004 
1.527115e-004 
1.523933e-004 
1.521014e-004 
1.517445e-004 
1.513628e-004 
1.510431e-004 
1.507060e-004 
1.502943e-004 
1.499114e-004 
1.495820e-004 
1.491845e-004 
1.487435e-004 
1.483763e-004 
1.480141e-004 
1.475584e-004 
1.471234e-004 
1.467672e-004 
1.463487e-004 
1.458623e-004 
1.454611e-004 
1.450897e-004 
1.446116e-004 
1.441405e-004 
1.437754e-004 
1.433580e-004 
1.428516e-004 
1.424373e-004 
1.420812e-004 
1.416107e-004 
1.411346e-004 
1.407876e-004 
1.404043e-004 
1.399169e-004 
1.395258e-004 
1.392187e-004 
1.387989e-004 
1.383635e-004 
1.380737e-004 
1.377660e-004 
1.373488e-004 
1.370270e-004 
1.368091e-004 
1.364884e-004 
1.361451e-004 
1.359530e-004 
1.357614e-004 
1.354631e-004 
1.352525e-004 
1.351555e-004 
1.349712e-004 
1.347585e-004 
1.346894e-004 
1.346358e-004 
1.344829e-004 
1.344024e-004 
1.344338e-004 
1.343949e-004 
1.343202e-004 
1.343707e-004 
1.344452e-004 
1.344299e-004 
1.344641e-004 
1.346003e-004 
1.346801e-004 
1.347163e-004 
1.348501e-004 
1.350128e-004 
1.350916e-004 
1.351963e-004 
1.353850e-004 
1.355303e-004 
1.356199e-004 
1.357808e-004 
1.359673e-004 
1.360776e-004 
1.361858e-004 
1.363635e-004 
1.365020e-004 
1.365781e-004 
1.366942e-004 
1.368390e-004 
1.369051e-004 
1.369517e-004 
1.370473e-004 
1.371182e-004 
1.371082e-004 
1.371259e-004 
1.371718e-004 
1.371532e-004 
1.370829e-004 
1.000000e+000 
1.000000e+000 
1.568514e-004 
1.568598e-004 
1.569080e-004 
1.570045e-004 
1.570413e-004 
1.570505e-004 
1.571158e-004 
1.571770e-004 
1.571580e-004 
1.571636e-004 
1.572044e-004 
1.571824e-004 
1.571133e-004 
1.571041e-004 
1.570765e-004 
1.569668e-004 
1.568712e-004 
1.568267e-004 
1.567054e-004 
1.565348e-004 
1.564274e-004 
1.563164e-004 
1.561039e-004 
1.559102e-004 
1.557805e-004 
1.555770e-004 
1.553046e-004 
1.551124e-004 
1.549280e-004 
1.546314e-004 
1.543446e-004 
1.541471e-004 
1.538750e-004 
1.535188e-004 
1.532497e-004 
1.530106e-004 
1.526453e-004 
1.522817e-004 
1.520256e-004 
1.517047e-004 
1.512802e-004 
1.509477e-004 
1.506644e-004 
1.502508e-004 
1.498241e-004 
1.495201e-004 
1.491630e-004 
1.486904e-004 
1.483051e-004 
1.479872e-004 
1.475416e-004 
1.470709e-004 
1.467268e-004 
1.463459e-004 
1.458462e-004 
1.454248e-004 
1.450807e-004 
1.446229e-004 
1.441326e-004 
1.437634e-004 
1.433739e-004 
1.428764e-004 
1.424447e-004 
1.420923e-004 
1.416495e-004 
1.411760e-004 
1.408090e-004 
1.404379e-004 
1.399818e-004 
1.395797e-004 
1.392508e-004 
1.388618e-004 
1.384519e-004 
1.381289e-004 
1.378150e-004 
1.374474e-004 
1.371234e-004 
1.368611e-004 
1.365694e-004 
1.362711e-004 
1.360377e-004 
1.358226e-004 
1.355846e-004 
1.353808e-004 
1.352240e-004 
1.350627e-004 
1.349072e-004 
1.347954e-004 
1.347045e-004 
1.346137e-004 
1.345479e-004 
1.345127e-004 
1.344874e-004 
1.344746e-004 
1.344860e-004 
1.345143e-004 
1.345548e-004 
1.346102e-004 
1.346797e-004 
1.347624e-004 
1.348583e-004 
1.349606e-004 
1.350716e-004 
1.351959e-004 
1.353253e-004 
1.354523e-004 
1.355894e-004 
1.357338e-004 
1.358706e-004 
1.360040e-004 
1.361475e-004 
1.362839e-004 
1.364061e-004 
1.365287e-004 
1.366526e-004 
1.367554e-004 
1.368472e-004 
1.369382e-004 
1.370165e-004 
1.370693e-004 
1.371173e-004 
1.371563e-004 
1.371745e-004 
1.371722e-004 
1.371590e-004 
1.371330e-004 
1.000000e+000 
1.000000e+000 
1.567323e-004 
1.568229e-004 
1.568695e-004 
1.569109e-004 
1.569833e-004 
1.570372e-004 
1.570562e-004 
1.570874e-004 
1.571283e-004 
1.571237e-004 
1.571020e-004 
1.571061e-004 
1.570868e-004 
1.570146e-004 
1.569585e-004 
1.569185e-004 
1.568210e-004 
1.566946e-004 
1.566104e-004 
1.565059e-004 
1.563317e-004 
1.561745e-004 
1.560551e-004 
1.558697e-004 
1.556404e-004 
1.554691e-004 
1.552931e-004 
1.550274e-004 
1.547756e-004 
1.545863e-004 
1.543315e-004 
1.540100e-004 
1.537606e-004 
1.535288e-004 
1.531906e-004 
1.528532e-004 
1.526067e-004 
1.523017e-004 
1.519042e-004 
1.515854e-004 
1.513139e-004 
1.509223e-004 
1.505117e-004 
1.502178e-004 
1.498809e-004 
1.494236e-004 
1.490449e-004 
1.487459e-004 
1.483195e-004 
1.478488e-004 
1.475165e-004 
1.471628e-004 
1.466641e-004 
1.462368e-004 
1.459217e-004 
1.454795e-004 
1.449672e-004 
1.446088e-004 
1.442550e-004 
1.437387e-004 
1.432833e-004 
1.429686e-004 
1.425352e-004 
1.420114e-004 
1.416505e-004 
1.413203e-004 
1.408218e-004 
1.403736e-004 
1.400867e-004 
1.396972e-004 
1.392068e-004 
1.388808e-004 
1.386084e-004 
1.381747e-004 
1.377822e-004 
1.375606e-004 
1.372579e-004 
1.368542e-004 
1.366076e-004 
1.364309e-004 
1.361106e-004 
1.358225e-004 
1.357022e-004 
1.355237e-004 
1.352512e-004 
1.351186e-004 
1.350639e-004 
1.348883e-004 
1.347336e-004 
1.347316e-004 
1.346922e-004 
1.345670e-004 
1.345561e-004 
1.346228e-004 
1.345906e-004 
1.345645e-004 
1.346673e-004 
1.347484e-004 
1.347499e-004 
1.348352e-004 
1.349908e-004 
1.350658e-004 
1.351295e-004 
1.352942e-004 
1.354472e-004 
1.355241e-004 
1.356527e-004 
1.358414e-004 
1.359624e-004 
1.360546e-004 
1.362200e-004 
1.363802e-004 
1.364641e-004 
1.365714e-004 
1.367279e-004 
1.368267e-004 
1.368792e-004 
1.369832e-004 
1.370869e-004 
1.371142e-004 
1.371400e-004 
1.372125e-004 
1.372337e-004 
1.371973e-004 
1.371964e-004 
1.372057e-004 
1.000000e+000 
1.000000e+000 
1.566224e-004 
1.567363e-004 
1.568292e-004 
1.568608e-004 
1.569235e-004 
1.570066e-004 
1.570257e-004 
1.570258e-004 
1.570769e-004 
1.570954e-004 
1.570494e-004 
1.570313e-004 
1.570382e-004 
1.569723e-004 
1.568815e-004 
1.568415e-004 
1.567751e-004 
1.566332e-004 
1.565199e-004 
1.564388e-004 
1.562848e-004 
1.560951e-004 
1.559667e-004 
1.558179e-004 
1.555858e-004 
1.553792e-004 
1.552209e-004 
1.549871e-004 
1.547087e-004 
1.544993e-004 
1.542824e-004 
1.539716e-004 
1.536841e-004 
1.534589e-004 
1.531620e-004 
1.528082e-004 
1.525305e-004 
1.522580e-004 
1.518868e-004 
1.515314e-004 
1.512512e-004 
1.509059e-004 
1.504952e-004 
1.501599e-004 
1.498432e-004 
1.494287e-004 
1.490216e-004 
1.486942e-004 
1.483139e-004 
1.478647e-004 
1.474838e-004 
1.471307e-004 
1.466906e-004 
1.462498e-004 
1.458841e-004 
1.454813e-004 
1.450164e-004 
1.446059e-004 
1.442274e-004 
1.437831e-004 
1.433343e-004 
1.429467e-004 
1.425409e-004 
1.420908e-004 
1.416784e-004 
1.412963e-004 
1.408791e-004 
1.404594e-004 
1.400811e-004 
1.397042e-004 
1.393101e-004 
1.389372e-004 
1.385890e-004 
1.382403e-004 
1.378963e-004 
1.375721e-004 
1.372668e-004 
1.369742e-004 
1.366889e-004 
1.364202e-004 
1.361819e-004 
1.359573e-004 
1.357328e-004 
1.355386e-004 
1.353813e-004 
1.352212e-004 
1.350679e-004 
1.349647e-004 
1.348819e-004 
1.347833e-004 
1.347170e-004 
1.347015e-004 
1.346757e-004 
1.346451e-004 
1.346703e-004 
1.347184e-004 
1.347381e-004 
1.347834e-004 
1.348815e-004 
1.349639e-004 
1.350284e-004 
1.351432e-004 
1.352784e-004 
1.353757e-004 
1.354856e-004 
1.356425e-004 
1.357782e-004 
1.358842e-004 
1.360274e-004 
1.361861e-004 
1.362991e-004 
1.364108e-004 
1.365586e-004 
1.366819e-004 
1.367644e-004 
1.368709e-004 
1.369864e-004 
1.370533e-004 
1.371050e-004 
1.371847e-004 
1.372379e-004 
1.372466e-004 
1.372654e-004 
1.372923e-004 
1.372676e-004 
1.372230e-004 
1.000000e+000 
1.000000e+000 
1.565902e-004 
1.566617e-004 
1.567518e-004 
1.568534e-004 
1.568979e-004 
1.569314e-004 
1.570024e-004 
1.570379e-004 
1.570181e-004 
1.570300e-004 
1.570553e-004 
1.570084e-004 
1.569467e-004 
1.569368e-004 
1.568869e-004 
1.567655e-004 
1.566857e-004 
1.566329e-004 
1.564911e-004 
1.563262e-004 
1.562356e-004 
1.561076e-004 
1.558846e-004 
1.557114e-004 
1.555900e-004 
1.553649e-004 
1.550988e-004 
1.549326e-004 
1.547420e-004 
1.544288e-004 
1.541659e-004 
1.539875e-004 
1.536973e-004 
1.533396e-004 
1.531047e-004 
1.528689e-004 
1.524830e-004 
1.521382e-004 
1.519144e-004 
1.515791e-004 
1.511441e-004 
1.508480e-004 
1.505822e-004 
1.501430e-004 
1.497269e-004 
1.494658e-004 
1.491032e-004 
1.486076e-004 
1.482578e-004 
1.479728e-004 
1.474994e-004 
1.470253e-004 
1.467341e-004 
1.463591e-004 
1.458230e-004 
1.454308e-004 
1.451364e-004 
1.446499e-004 
1.441394e-004 
1.438298e-004 
1.434593e-004 
1.429116e-004 
1.425000e-004 
1.422122e-004 
1.417414e-004 
1.412302e-004 
1.409265e-004 
1.405866e-004 
1.400693e-004 
1.396771e-004 
1.394243e-004 
1.390095e-004 
1.385480e-004 
1.382885e-004 
1.380159e-004 
1.375812e-004 
1.372582e-004 
1.370779e-004 
1.367650e-004 
1.364073e-004 
1.362344e-004 
1.360670e-004 
1.357627e-004 
1.355531e-004 
1.354781e-004 
1.353018e-004 
1.350854e-004 
1.350268e-004 
1.349863e-004 
1.348352e-004 
1.347575e-004 
1.347976e-004 
1.347640e-004 
1.346923e-004 
1.347456e-004 
1.348227e-004 
1.348107e-004 
1.348474e-004 
1.349802e-004 
1.350598e-004 
1.350988e-004 
1.352283e-004 
1.353821e-004 
1.354615e-004 
1.355635e-004 
1.357391e-004 
1.358750e-004 
1.359646e-004 
1.361123e-004 
1.362818e-004 
1.363859e-004 
1.364884e-004 
1.366442e-004 
1.367700e-004 
1.368419e-004 
1.369452e-004 
1.370688e-004 
1.371331e-004 
1.371752e-004 
1.372578e-004 
1.373195e-004 
1.373198e-004 
1.373320e-004 
1.373714e-004 
1.373578e-004 
1.373001e-004 
1.000000e+000 
1.000000e+000 
1.565214e-004 
1.566100e-004 
1.567024e-004 
1.568189e-004 
1.568906e-004 
1.569150e-004 
1.569672e-004 
1.570244e-004 
1.570188e-004 
1.570019e-004 
1.570198e-004 
1.570043e-004 
1.569340e-004 
1.568883e-004 
1.568563e-004 
1.567638e-004 
1.566491e-004 
1.565746e-004 
1.564760e-004 
1.563165e-004 
1.561752e-004 
1.560599e-004 
1.558865e-004 
1.556815e-004 
1.555195e-004 
1.553456e-004 
1.551053e-004 
1.548773e-004 
1.546855e-004 
1.544419e-004 
1.541575e-004 
1.539175e-004 
1.536776e-004 
1.533708e-004 
1.530681e-004 
1.528093e-004 
1.525088e-004 
1.521614e-004 
1.518539e-004 
1.515589e-004 
1.512022e-004 
1.508398e-004 
1.505227e-004 
1.501786e-004 
1.497857e-004 
1.494218e-004 
1.490800e-004 
1.486900e-004 
1.482831e-004 
1.479150e-004 
1.475387e-004 
1.471189e-004 
1.467098e-004 
1.463289e-004 
1.459224e-004 
1.454895e-004 
1.450800e-004 
1.446852e-004 
1.442608e-004 
1.438246e-004 
1.434183e-004 
1.430182e-004 
1.425858e-004 
1.421560e-004 
1.417658e-004 
1.413686e-004 
1.409366e-004 
1.405336e-004 
1.401737e-004 
1.397810e-004 
1.393689e-004 
1.390209e-004 
1.386927e-004 
1.383108e-004 
1.379557e-004 
1.376785e-004 
1.373728e-004 
1.370292e-004 
1.367683e-004 
1.365522e-004 
1.362703e-004 
1.360110e-004 
1.358545e-004 
1.356763e-004 
1.354468e-004 
1.353076e-004 
1.352302e-004 
1.350823e-004 
1.349488e-004 
1.349274e-004 
1.348914e-004 
1.347951e-004 
1.347831e-004 
1.348394e-004 
1.348259e-004 
1.348137e-004 
1.349078e-004 
1.349928e-004 
1.350109e-004 
1.350961e-004 
1.352473e-004 
1.353316e-004 
1.354013e-004 
1.355611e-004 
1.357148e-004 
1.357965e-004 
1.359229e-004 
1.361073e-004 
1.362283e-004 
1.363186e-004 
1.364793e-004 
1.366350e-004 
1.367153e-004 
1.368182e-004 
1.369702e-004 
1.370628e-004 
1.371116e-004 
1.372133e-004 
1.373127e-004 
1.373351e-004 
1.373632e-004 
1.374361e-004 
1.374566e-004 
1.374210e-004 
1.374278e-004 
1.374431e-004 
1.000000e+000 
1.000000e+000 
1.564357e-004 
1.566108e-004 
1.567140e-004 
1.567627e-004 
1.568619e-004 
1.569569e-004 
1.569653e-004 
1.569772e-004 
1.570401e-004 
1.570404e-004 
1.569792e-004 
1.569778e-004 
1.569806e-004 
1.568848e-004 
1.567946e-004 
1.567754e-004 
1.566869e-004 
1.565214e-004 
1.564319e-004 
1.563619e-004 
1.561717e-004 
1.559825e-004 
1.558916e-004 
1.557296e-004 
1.554643e-004 
1.552902e-004 
1.551604e-004 
1.548888e-004 
1.546028e-004 
1.544474e-004 
1.542282e-004 
1.538734e-004 
1.536178e-004 
1.534413e-004 
1.531056e-004 
1.527309e-004 
1.525176e-004 
1.522588e-004 
1.518304e-004 
1.515000e-004 
1.512872e-004 
1.509069e-004 
1.504561e-004 
1.501909e-004 
1.499062e-004 
1.494231e-004 
1.490265e-004 
1.487837e-004 
1.483756e-004 
1.478653e-004 
1.475533e-004 
1.472519e-004 
1.467339e-004 
1.462844e-004 
1.460162e-004 
1.455955e-004 
1.450483e-004 
1.447002e-004 
1.443910e-004 
1.438628e-004 
1.433847e-004 
1.431023e-004 
1.426889e-004 
1.421393e-004 
1.417799e-004 
1.414806e-004 
1.409777e-004 
1.405119e-004 
1.402412e-004 
1.398667e-004 
1.393642e-004 
1.390351e-004 
1.387776e-004 
1.383476e-004 
1.379485e-004 
1.377297e-004 
1.374363e-004 
1.370370e-004 
1.367882e-004 
1.366129e-004 
1.363044e-004 
1.360242e-004 
1.358986e-004 
1.357251e-004 
1.354727e-004 
1.353431e-004 
1.352807e-004 
1.351232e-004 
1.349896e-004 
1.349792e-004 
1.349410e-004 
1.348462e-004 
1.348436e-004 
1.348967e-004 
1.348837e-004 
1.348859e-004 
1.349787e-004 
1.350556e-004 
1.350891e-004 
1.351840e-004 
1.353207e-004 
1.354094e-004 
1.355004e-004 
1.356519e-004 
1.357929e-004 
1.358952e-004 
1.360304e-004 
1.361937e-004 
1.363192e-004 
1.364324e-004 
1.365805e-004 
1.367206e-004 
1.368223e-004 
1.369321e-004 
1.370600e-004 
1.371571e-004 
1.372281e-004 
1.373151e-004 
1.373991e-004 
1.374439e-004 
1.374778e-004 
1.375260e-004 
1.375532e-004 
1.375434e-004 
1.375379e-004 
1.375391e-004 
1.000000e+000 
1.000000e+000 
1.564110e-004 
1.565604e-004 
1.567042e-004 
1.567922e-004 
1.568633e-004 
1.569482e-004 
1.570008e-004 
1.570091e-004 
1.570300e-004 
1.570553e-004 
1.570303e-004 
1.569833e-004 
1.569637e-004 
1.569250e-004 
1.568327e-004 
1.567479e-004 
1.566866e-004 
1.565792e-004 
1.564340e-004 
1.563216e-004 
1.562087e-004 
1.560334e-004 
1.558534e-004 
1.557129e-004 
1.555363e-004 
1.553051e-004 
1.551053e-004 
1.549254e-004 
1.546809e-004 
1.544146e-004 
1.541992e-004 
1.539647e-004 
1.536619e-004 
1.533812e-004 
1.531415e-004 
1.528437e-004 
1.525040e-004 
1.522193e-004 
1.519393e-004 
1.515827e-004 
1.512300e-004 
1.509376e-004 
1.506034e-004 
1.502053e-004 
1.498566e-004 
1.495419e-004 
1.491494e-004 
1.487343e-004 
1.483944e-004 
1.480388e-004 
1.475976e-004 
1.471909e-004 
1.468506e-004 
1.464401e-004 
1.459750e-004 
1.455946e-004 
1.452333e-004 
1.447686e-004 
1.443162e-004 
1.439642e-004 
1.435582e-004 
1.430653e-004 
1.426626e-004 
1.423187e-004 
1.418604e-004 
1.413910e-004 
1.410540e-004 
1.406858e-004 
1.402040e-004 
1.398155e-004 
1.395244e-004 
1.391163e-004 
1.386779e-004 
1.383974e-004 
1.381100e-004 
1.376935e-004 
1.373702e-004 
1.371740e-004 
1.368668e-004 
1.365166e-004 
1.363371e-004 
1.361717e-004 
1.358736e-004 
1.356627e-004 
1.355937e-004 
1.354260e-004 
1.352074e-004 
1.351553e-004 
1.351319e-004 
1.349811e-004 
1.349026e-004 
1.349644e-004 
1.349431e-004 
1.348637e-004 
1.349309e-004 
1.350341e-004 
1.350193e-004 
1.350537e-004 
1.352146e-004 
1.353075e-004 
1.353341e-004 
1.354774e-004 
1.356585e-004 
1.357313e-004 
1.358263e-004 
1.360278e-004 
1.361741e-004 
1.362458e-004 
1.364018e-004 
1.365944e-004 
1.366875e-004 
1.367772e-004 
1.369533e-004 
1.370856e-004 
1.371361e-004 
1.372426e-004 
1.373860e-004 
1.374383e-004 
1.374661e-004 
1.375666e-004 
1.376365e-004 
1.376188e-004 
1.376369e-004 
1.376989e-004 
1.376788e-004 
1.376173e-004 
1.000000e+000 
1.000000e+000 
1.564520e-004 
1.565606e-004 
1.566838e-004 
1.568426e-004 
1.569141e-004 
1.569393e-004 
1.570297e-004 
1.570932e-004 
1.570573e-004 
1.570514e-004 
1.570983e-004 
1.570534e-004 
1.569578e-004 
1.569463e-004 
1.569186e-004 
1.567769e-004 
1.566703e-004 
1.566383e-004 
1.565071e-004 
1.563100e-004 
1.562169e-004 
1.561208e-004 
1.558879e-004 
1.556884e-004 
1.555921e-004 
1.553904e-004 
1.550979e-004 
1.549287e-004 
1.547782e-004 
1.544655e-004 
1.541766e-004 
1.540242e-004 
1.537670e-004 
1.533883e-004 
1.531472e-004 
1.529545e-004 
1.525779e-004 
1.522070e-004 
1.520047e-004 
1.517078e-004 
1.512576e-004 
1.509502e-004 
1.507241e-004 
1.503010e-004 
1.498598e-004 
1.496113e-004 
1.492864e-004 
1.487823e-004 
1.484156e-004 
1.481596e-004 
1.477060e-004 
1.472103e-004 
1.469187e-004 
1.465733e-004 
1.460362e-004 
1.456231e-004 
1.453402e-004 
1.448727e-004 
1.443478e-004 
1.440236e-004 
1.436680e-004 
1.431274e-004 
1.426949e-004 
1.423976e-004 
1.419421e-004 
1.414284e-004 
1.410985e-004 
1.407559e-004 
1.402557e-004 
1.398488e-004 
1.395676e-004 
1.391643e-004 
1.387174e-004 
1.384270e-004 
1.381369e-004 
1.377316e-004 
1.374071e-004 
1.371870e-004 
1.368848e-004 
1.365616e-004 
1.363615e-004 
1.361689e-004 
1.359067e-004 
1.357125e-004 
1.355959e-004 
1.354323e-004 
1.352682e-004 
1.351922e-004 
1.351252e-004 
1.350251e-004 
1.349780e-004 
1.349810e-004 
1.349607e-004 
1.349511e-004 
1.349973e-004 
1.350484e-004 
1.350875e-004 
1.351628e-004 
1.352634e-004 
1.353517e-004 
1.354514e-004 
1.355796e-004 
1.357052e-004 
1.358263e-004 
1.359658e-004 
1.361106e-004 
1.362456e-004 
1.363858e-004 
1.365320e-004 
1.366687e-004 
1.368009e-004 
1.369347e-004 
1.370592e-004 
1.371743e-004 
1.372864e-004 
1.373873e-004 
1.374755e-004 
1.375592e-004 
1.376307e-004 
1.376840e-004 
1.377327e-004 
1.377733e-004 
1.377901e-004 
1.377973e-004 
1.378076e-004 
1.377940e-004 
1.000000e+000 
1.000000e+000 
1.564341e-004 
1.566047e-004 
1.567349e-004 
1.568526e-004 
1.569671e-004 
1.570333e-004 
1.570670e-004 
1.571189e-004 
1.571552e-004 
1.571327e-004 
1.571101e-004 
1.571145e-004 
1.570718e-004 
1.569818e-004 
1.569293e-004 
1.568821e-004 
1.567599e-004 
1.566305e-004 
1.565565e-004 
1.564398e-004 
1.562507e-004 
1.561081e-004 
1.559986e-004 
1.557990e-004 
1.555720e-004 
1.554262e-004 
1.552529e-004 
1.549781e-004 
1.547471e-004 
1.545829e-004 
1.543230e-004 
1.540057e-004 
1.537890e-004 
1.535724e-004 
1.532280e-004 
1.529112e-004 
1.526978e-004 
1.523961e-004 
1.520001e-004 
1.517136e-004 
1.514658e-004 
1.510706e-004 
1.506737e-004 
1.504144e-004 
1.500878e-004 
1.496272e-004 
1.492724e-004 
1.490014e-004 
1.485734e-004 
1.481043e-004 
1.478006e-004 
1.474626e-004 
1.469537e-004 
1.465349e-004 
1.462472e-004 
1.458047e-004 
1.452781e-004 
1.449366e-004 
1.446017e-004 
1.440674e-004 
1.436017e-004 
1.433109e-004 
1.428783e-004 
1.423244e-004 
1.419676e-004 
1.416595e-004 
1.411374e-004 
1.406630e-004 
1.403983e-004 
1.400130e-004 
1.394827e-004 
1.391541e-004 
1.389097e-004 
1.384527e-004 
1.380284e-004 
1.378332e-004 
1.375420e-004 
1.370995e-004 
1.368538e-004 
1.367147e-004 
1.363791e-004 
1.360660e-004 
1.359815e-004 
1.358257e-004 
1.355257e-004 
1.354047e-004 
1.353978e-004 
1.352198e-004 
1.350535e-004 
1.350963e-004 
1.350893e-004 
1.349507e-004 
1.349607e-004 
1.350797e-004 
1.350553e-004 
1.350272e-004 
1.351755e-004 
1.352914e-004 
1.352866e-004 
1.353920e-004 
1.355943e-004 
1.356778e-004 
1.357382e-004 
1.359378e-004 
1.361180e-004 
1.361852e-004 
1.363226e-004 
1.365433e-004 
1.366656e-004 
1.367448e-004 
1.369283e-004 
1.371036e-004 
1.371713e-004 
1.372737e-004 
1.374488e-004 
1.375439e-004 
1.375783e-004 
1.376895e-004 
1.378064e-004 
1.378205e-004 
1.378407e-004 
1.379318e-004 
1.379634e-004 
1.379175e-004 
1.379321e-004 
1.379746e-004 
1.000000e+000 
1.000000e+000 
1.564448e-004 
1.566764e-004 
1.568339e-004 
1.568979e-004 
1.570108e-004 
1.571436e-004 
1.571668e-004 
1.571632e-004 
1.572359e-004 
1.572595e-004 
1.571839e-004 
1.571617e-004 
1.571833e-004 
1.570956e-004 
1.569752e-004 
1.569502e-004 
1.568879e-004 
1.567121e-004 
1.565937e-004 
1.565411e-004 
1.563728e-004 
1.561572e-004 
1.560553e-004 
1.559284e-004 
1.556674e-004 
1.554629e-004 
1.553492e-004 
1.551138e-004 
1.548104e-004 
1.546380e-004 
1.544579e-004 
1.541221e-004 
1.538367e-004 
1.536691e-004 
1.533789e-004 
1.529973e-004 
1.527593e-004 
1.525353e-004 
1.521388e-004 
1.517805e-004 
1.515636e-004 
1.512309e-004 
1.507850e-004 
1.504861e-004 
1.502234e-004 
1.497811e-004 
1.493610e-004 
1.490959e-004 
1.487289e-004 
1.482353e-004 
1.478813e-004 
1.475806e-004 
1.471071e-004 
1.466411e-004 
1.463291e-004 
1.459347e-004 
1.454157e-004 
1.450198e-004 
1.446842e-004 
1.441994e-004 
1.437153e-004 
1.433686e-004 
1.429616e-004 
1.424521e-004 
1.420444e-004 
1.416920e-004 
1.412297e-004 
1.407730e-004 
1.404241e-004 
1.400375e-004 
1.395888e-004 
1.392189e-004 
1.388897e-004 
1.384999e-004 
1.381299e-004 
1.378303e-004 
1.375144e-004 
1.371846e-004 
1.369109e-004 
1.366584e-004 
1.363942e-004 
1.361649e-004 
1.359684e-004 
1.357720e-004 
1.356036e-004 
1.354696e-004 
1.353372e-004 
1.352291e-004 
1.351647e-004 
1.351011e-004 
1.350449e-004 
1.350414e-004 
1.350536e-004 
1.350492e-004 
1.350856e-004 
1.351656e-004 
1.352227e-004 
1.352841e-004 
1.354043e-004 
1.355253e-004 
1.356140e-004 
1.357428e-004 
1.359084e-004 
1.360349e-004 
1.361564e-004 
1.363304e-004 
1.364934e-004 
1.366122e-004 
1.367619e-004 
1.369384e-004 
1.370657e-004 
1.371784e-004 
1.373336e-004 
1.374685e-004 
1.375522e-004 
1.376584e-004 
1.377826e-004 
1.378513e-004 
1.379014e-004 
1.379879e-004 
1.380481e-004 
1.380537e-004 
1.380825e-004 
1.381260e-004 
1.381103e-004 
1.380776e-004 
1.000000e+000 
1.000000e+000 
1.565562e-004 
1.567121e-004 
1.568885e-004 
1.570455e-004 
1.571232e-004 
1.571902e-004 
1.572879e-004 
1.573259e-004 
1.573063e-004 
1.573312e-004 