# vtk DataFile Version 2.0
2D-ADE data file 
ASCII
DATASET RECTILINEAR_GRID
DIMENSIONS 128 128 1
X_COORDINATES 128 int
0 1 2 3 4 5 6 7 8 9 10 11 12 13 14 15 16 17 18 19 20 21 22 23 24 25 26 27 28 29 30 31 32 33 34 35 36 37 38 39 40 41 42 43 44 45 46 47 48 49 50 51 52 53 54 55 56 57 58 59 60 61 62 63 64 65 66 67 68 69 70 71 72 73 74 75 76 77 78 79 80 81 82 83 84 85 86 87 88 89 90 91 92 93 94 95 96 97 98 99 100 101 102 103 104 105 106 107 108 109 110 111 112 113 114 115 116 117 118 119 120 121 122 123 124 125 126 127 
Y_COORDINATES 128 int
0 1 2 3 4 5 6 7 8 9 10 11 12 13 14 15 16 17 18 19 20 21 22 23 24 25 26 27 28 29 30 31 32 33 34 35 36 37 38 39 40 41 42 43 44 45 46 47 48 49 50 51 52 53 54 55 56 57 58 59 60 61 62 63 64 65 66 67 68 69 70 71 72 73 74 75 76 77 78 79 80 81 82 83 84 85 86 87 88 89 90 91 92 93 94 95 96 97 98 99 100 101 102 103 104 105 106 107 108 109 110 111 112 113 114 115 116 117 118 119 120 121 122 123 124 125 126 127 
Z_COORDINATES 1 int
0
POINT_DATA 16384 
SCALARS density double 1
LOOKUP_TABLE default
1.000000e+000 
1.000000e+000 
1.000000e+000 
1.000000e+000 
1.000000e+000 
1.000000e+000 
1.000000e+000 
1.000000e+000 
1.000000e+000 
1.000000e+000 
1.000000e+000 
1.000000e+000 
1.000000e+000 
1.000000e+000 
1.000000e+000 
1.000000e+000 
1.000000e+000 
1.000000e+000 
1.000000e+000 
1.000000e+000 
1.000000e+000 
1.000000e+000 
1.000000e+000 
1.000000e+000 
1.000000e+000 
1.000000e+000 
1.000000e+000 
1.000000e+000 
1.000000e+000 
1.000000e+000 
1.000000e+000 
1.000000e+000 
1.000000e+000 
1.000000e+000 
1.000000e+000 
1.000000e+000 
1.000000e+000 
1.000000e+000 
1.000000e+000 
1.000000e+000 
1.000000e+000 
1.000000e+000 
1.000000e+000 
1.000000e+000 
1.000000e+000 
1.000000e+000 
1.000000e+000 
1.000000e+000 
1.000000e+000 
1.000000e+000 
1.000000e+000 
1.000000e+000 
1.000000e+000 
1.000000e+000 
1.000000e+000 
1.000000e+000 
1.000000e+000 
1.000000e+000 
1.000000e+000 
1.000000e+000 
1.000000e+000 
1.000000e+000 
1.000000e+000 
1.000000e+000 
1.000000e+000 
1.000000e+000 
1.000000e+000 
1.000000e+000 
1.000000e+000 
1.000000e+000 
1.000000e+000 
1.000000e+000 
1.000000e+000 
1.000000e+000 
1.000000e+000 
1.000000e+000 
1.000000e+000 
1.000000e+000 
1.000000e+000 
1.000000e+000 
1.000000e+000 
1.000000e+000 
1.000000e+000 
1.000000e+000 
1.000000e+000 
1.000000e+000 
1.000000e+000 
1.000000e+000 
1.000000e+000 
1.000000e+000 
1.000000e+000 
1.000000e+000 
1.000000e+000 
1.000000e+000 
1.000000e+000 
1.000000e+000 
1.000000e+000 
1.000000e+000 
1.000000e+000 
1.000000e+000 
1.000000e+000 
1.000000e+000 
1.000000e+000 
1.000000e+000 
1.000000e+000 
1.000000e+000 
1.000000e+000 
1.000000e+000 
1.000000e+000 
1.000000e+000 
1.000000e+000 
1.000000e+000 
1.000000e+000 
1.000000e+000 
1.000000e+000 
1.000000e+000 
1.000000e+000 
1.000000e+000 
1.000000e+000 
1.000000e+000 
1.000000e+000 
1.000000e+000 
1.000000e+000 
1.000000e+000 
1.000000e+000 
1.000000e+000 
1.000000e+000 
1.000000e+000 
1.000000e+000 
1.222948e-004 
1.222128e-004 
1.221086e-004 
1.220610e-004 
1.220424e-004 
1.221909e-004 
1.224195e-004 
1.227403e-004 
1.231138e-004 
1.236298e-004 
1.241957e-004 
1.248044e-004 
1.254853e-004 
1.262624e-004 
1.270491e-004 
1.278658e-004 
1.287757e-004 
1.297325e-004 
1.306827e-004 
1.316910e-004 
1.327995e-004 
1.339106e-004 
1.350362e-004 
1.362616e-004 
1.375647e-004 
1.388440e-004 
1.401886e-004 
1.416515e-004 
1.431412e-004 
1.446120e-004 
1.462014e-004 
1.478778e-004 
1.495230e-004 
1.511860e-004 
1.529856e-004 
1.547890e-004 
1.565253e-004 
1.583259e-004 
1.602128e-004 
1.619952e-004 
1.637136e-004 
1.655092e-004 
1.672664e-004 
1.688305e-004 
1.703604e-004 
1.719044e-004 
1.732459e-004 
1.743649e-004 
1.754633e-004 
1.764281e-004 
1.770581e-004 
1.774999e-004 
1.778716e-004 
1.779283e-004 
1.776189e-004 
1.771803e-004 
1.765511e-004 
1.754905e-004 
1.741536e-004 
1.727148e-004 
1.709563e-004 
1.688038e-004 
1.665356e-004 
1.641436e-004 
1.614031e-004 
1.584693e-004 
1.555672e-004 
1.525241e-004 
1.492783e-004 
1.461140e-004 
1.430700e-004 
1.399590e-004 
1.369290e-004 
1.342037e-004 
1.316545e-004 
1.292301e-004 
1.271706e-004 
1.255169e-004 
1.241102e-004 
1.230547e-004 
1.225100e-004 
1.223638e-004 
1.225443e-004 
1.232038e-004 
1.243381e-004 
1.258013e-004 
1.276173e-004 
1.298686e-004 
1.324306e-004 
1.352181e-004 
1.382822e-004 
1.416020e-004 
1.450290e-004 
1.485584e-004 
1.522051e-004 
1.558897e-004 
1.595101e-004 
1.631126e-004 
1.666563e-004 
1.700724e-004 
1.733194e-004 
1.764583e-004 
1.794086e-004 
1.821591e-004 
1.847007e-004 
1.870906e-004 
1.892340e-004 
1.911886e-004 
1.929353e-004 
1.945325e-004 
1.958832e-004 
1.971008e-004 
1.981228e-004 
1.990272e-004 
1.997069e-004 
2.003140e-004 
2.007270e-004 
2.010610e-004 
2.011831e-004 
2.012766e-004 
2.011773e-004 
2.010394e-004 
2.007241e-004 
2.004468e-004 
2.001929e-004 
2.000756e-004 
1.000000e+000 
1.000000e+000 
1.223646e-004 
1.222805e-004 
1.221935e-004 
1.222303e-004 
1.222240e-004 
1.223774e-004 
1.225762e-004 
1.229230e-004 
1.232652e-004 
1.237471e-004 
1.242848e-004 
1.248895e-004 
1.255195e-004 
1.262552e-004 
1.270275e-004 
1.278194e-004 
1.286743e-004 
1.296002e-004 
1.305425e-004 
1.315067e-004 
1.325653e-004 
1.336576e-004 
1.347673e-004 
1.359317e-004 
1.371946e-004 
1.384595e-004 
1.397683e-004 
1.411594e-004 
1.426210e-004 
1.440715e-004 
1.456007e-004 
1.472057e-004 
1.488360e-004 
1.504638e-004 
1.521831e-004 
1.539317e-004 
1.556660e-004 
1.574092e-004 
1.592114e-004 
1.609748e-004 
1.626963e-004 
1.644115e-004 
1.661098e-004 
1.677031e-004 
1.692245e-004 
1.706810e-004 
1.720279e-004 
1.732153e-004 
1.742778e-004 
1.751898e-004 
1.759144e-004 
1.764284e-004 
1.767449e-004 
1.768400e-004 
1.766980e-004 
1.762932e-004 
1.756381e-004 
1.747405e-004 
1.735794e-004 
1.721283e-004 
1.704445e-004 
1.685479e-004 
1.663885e-004 
1.639904e-004 
1.614613e-004 
1.587775e-004 
1.558938e-004 
1.529325e-004 
1.499829e-004 
1.469579e-004 
1.438991e-004 
1.409907e-004 
1.382144e-004 
1.354890e-004 
1.329802e-004 
1.308096e-004 
1.288469e-004 
1.271217e-004 
1.258384e-004 
1.249549e-004 
1.243359e-004 
1.241404e-004 
1.244583e-004 
1.251161e-004 
1.260890e-004 
1.275580e-004 
1.294198e-004 
1.315121e-004 
1.339264e-004 
1.367309e-004 
1.396991e-004 
1.428003e-004 
1.461379e-004 
1.496336e-004 
1.530811e-004 
1.565877e-004 
1.601596e-004 
1.636572e-004 
1.669864e-004 
1.703119e-004 
1.735112e-004 
1.765068e-004 
1.793027e-004 
1.820388e-004 
1.845090e-004 
1.867745e-004 
1.888492e-004 
1.908267e-004 
1.924813e-004 
1.940171e-004 
1.953628e-004 
1.966076e-004 
1.975372e-004 
1.984571e-004 
1.991559e-004 
1.997865e-004 
2.001309e-004 
2.005513e-004 
2.006956e-004 
2.008303e-004 
2.007165e-004 
2.007255e-004 
2.004570e-004 
2.002633e-004 
2.000798e-004 
1.999950e-004 
1.000000e+000 
1.000000e+000 
1.224564e-004 
1.223808e-004 
1.222856e-004 
1.222620e-004 
1.223449e-004 
1.224931e-004 
1.226757e-004 
1.229829e-004 
1.233771e-004 
1.238071e-004 
1.242941e-004 
1.248998e-004 
1.255394e-004 
1.261900e-004 
1.269268e-004 
1.277474e-004 
1.285549e-004 
1.293937e-004 
1.303428e-004 
1.313230e-004 
1.322807e-004 
1.333231e-004 
1.344692e-004 
1.355953e-004 
1.367378e-004 
1.380127e-004 
1.393430e-004 
1.406310e-004 
1.420048e-004 
1.435115e-004 
1.450009e-004 
1.464723e-004 
1.480872e-004 
1.497698e-004 
1.513757e-004 
1.530245e-004 
1.548140e-004 
1.565581e-004 
1.582128e-004 
1.599643e-004 
1.617668e-004 
1.634110e-004 
1.650014e-004 
1.666786e-004 
1.682483e-004 
1.695991e-004 
1.709410e-004 
1.722625e-004 
1.733135e-004 
1.741591e-004 
1.749911e-004 
1.756231e-004 
1.758970e-004 
1.760253e-004 
1.760518e-004 
1.757133e-004 
1.750487e-004 
1.742850e-004 
1.732819e-004 
1.718655e-004 
1.702502e-004 
1.685308e-004 
1.664828e-004 
1.641367e-004 
1.617396e-004 
1.592106e-004 
1.564086e-004 
1.535379e-004 
1.507252e-004 
1.478109e-004 
1.448349e-004 
1.420238e-004 
1.393453e-004 
1.367063e-004 
1.342744e-004 
1.321607e-004 
1.302612e-004 
1.286075e-004 
1.273543e-004 
1.264783e-004 
1.259101e-004 
1.257416e-004 
1.260210e-004 
1.266673e-004 
1.276698e-004 
1.290856e-004 
1.308687e-004 
1.329508e-004 
1.353365e-004 
1.380163e-004 
1.409131e-004 
1.439869e-004 
1.472215e-004 
1.505726e-004 
1.539759e-004 
1.574076e-004 
1.608340e-004 
1.642178e-004 
1.675156e-004 
1.707153e-004 
1.737857e-004 
1.767139e-004 
1.794708e-004 
1.820605e-004 
1.844642e-004 
1.866902e-004 
1.887160e-004 
1.905667e-004 
1.922285e-004 
1.937229e-004 
1.950286e-004 
1.961902e-004 
1.971841e-004 
1.980405e-004 
1.987371e-004 
1.993294e-004 
1.997729e-004 
2.001093e-004 
2.003177e-004 
2.004496e-004 
2.004515e-004 
2.003847e-004 
2.002628e-004 
2.000866e-004 
1.998816e-004 
1.997203e-004 
1.000000e+000 
1.000000e+000 
1.225067e-004 
1.223458e-004 
1.222995e-004 
1.222796e-004 
1.223506e-004 
1.224921e-004 
1.227147e-004 
1.229863e-004 
1.233651e-004 
1.238023e-004 
1.242866e-004 
1.248335e-004 
1.254604e-004 
1.261182e-004 
1.268112e-004 
1.275736e-004 
1.283833e-004 
1.292122e-004 
1.300870e-004 
1.310308e-004 
1.319994e-004 
1.329988e-004 
1.340615e-004 
1.351842e-004 
1.363257e-004 
1.375214e-004 
1.387874e-004 
1.400994e-004 
1.414374e-004 
1.428462e-004 
1.443156e-004 
1.458167e-004 
1.473513e-004 
1.489539e-004 
1.505933e-004 
1.522475e-004 
1.539284e-004 
1.556531e-004 
1.573792e-004 
1.590896e-004 
1.607999e-004 
1.625120e-004 
1.641720e-004 
1.657668e-004 
1.673199e-004 
1.688139e-004 
1.701784e-004 
1.714200e-004 
1.725718e-004 
1.735785e-004 
1.743684e-004 
1.749937e-004 
1.754735e-004 
1.757039e-004 
1.756599e-004 
1.754429e-004 
1.750110e-004 
1.742463e-004 
1.732258e-004 
1.720473e-004 
1.705843e-004 
1.687934e-004 
1.668514e-004 
1.647650e-004 
1.623789e-004 
1.598045e-004 
1.572226e-004 
1.545091e-004 
1.516051e-004 
1.487559e-004 
1.460116e-004 
1.431949e-004 
1.404350e-004 
1.379637e-004 
1.356522e-004 
1.334233e-004 
1.315411e-004 
1.300575e-004 
1.287693e-004 
1.277857e-004 
1.273223e-004 
1.272206e-004 
1.273727e-004 
1.279948e-004 
1.290998e-004 
1.304534e-004 
1.321179e-004 
1.342415e-004 
1.366457e-004 
1.391900e-004 
1.420305e-004 
1.451389e-004 
1.482938e-004 
1.515111e-004 
1.549058e-004 
1.583085e-004 
1.616022e-004 
1.648949e-004 
1.681873e-004 
1.712899e-004 
1.742354e-004 
1.771142e-004 
1.798389e-004 
1.823000e-004 
1.846271e-004 
1.868226e-004 
1.887916e-004 
1.905273e-004 
1.921697e-004 
1.936311e-004 
1.948805e-004 
1.959677e-004 
1.969873e-004 
1.978014e-004 
1.984716e-004 
1.990345e-004 
1.995347e-004 
1.998274e-004 
2.000576e-004 
2.001996e-004 
2.002782e-004 
2.001665e-004 
2.000755e-004 
1.999298e-004 
1.997305e-004 
1.994178e-004 
1.000000e+000 
1.000000e+000 
1.225268e-004 
1.223328e-004 
1.222240e-004 
1.222306e-004 
1.222856e-004 
1.224203e-004 
1.226708e-004 
1.229545e-004 
1.232829e-004 
1.237186e-004 
1.242294e-004 
1.247379e-004 
1.253111e-004 
1.259877e-004 
1.266745e-004 
1.273606e-004 
1.281454e-004 
1.289972e-004 
1.298164e-004 
1.306829e-004 
1.316658e-004 
1.326592e-004 
1.336280e-004 
1.347109e-004 
1.358848e-004 
1.370225e-004 
1.381954e-004 
1.395211e-004 
1.408708e-004 
1.421801e-004 
1.436033e-004 
1.451534e-004 
1.466520e-004 
1.481585e-004 
1.498231e-004 
1.515224e-004 
1.531300e-004 
1.548166e-004 
1.566251e-004 
1.583475e-004 
1.599935e-004 
1.617542e-004 
1.635126e-004 
1.650914e-004 
1.666420e-004 
1.682542e-004 
1.696967e-004 
1.709319e-004 
1.721633e-004 
1.733095e-004 
1.741523e-004 
1.748190e-004 
1.754328e-004 
1.757821e-004 
1.757908e-004 
1.756660e-004 
1.753705e-004 
1.746979e-004 
1.737500e-004 
1.726771e-004 
1.713213e-004 
1.696143e-004 
1.677494e-004 
1.657408e-004 
1.634411e-004 
1.609457e-004 
1.584056e-004 
1.557397e-004 
1.529211e-004 
1.501136e-004 
1.473599e-004 
1.445950e-004 
1.419050e-004 
1.394035e-004 
1.370698e-004 
1.349158e-004 
1.330401e-004 
1.314731e-004 
1.302061e-004 
1.292838e-004 
1.287413e-004 
1.285747e-004 
1.287960e-004 
1.294063e-004 
1.303921e-004 
1.317541e-004 
1.334739e-004 
1.354999e-004 
1.378220e-004 
1.404265e-004 
1.432424e-004 
1.462192e-004 
1.493637e-004 
1.526180e-004 
1.559013e-004 
1.592050e-004 
1.625262e-004 
1.657768e-004 
1.689228e-004 
1.719862e-004 
1.749367e-004 
1.777003e-004 
1.803067e-004 
1.827698e-004 
1.850452e-004 
1.871057e-004 
1.890175e-004 
1.907598e-004 
1.923046e-004 
1.936694e-004 
1.949173e-004 
1.959919e-004 
1.969074e-004 
1.976959e-004 
1.983924e-004 
1.989243e-004 
1.993553e-004 
1.996955e-004 
1.999502e-004 
2.000559e-004 
2.001160e-004 
2.001035e-004 
2.000047e-004 
1.997867e-004 
1.994763e-004 
1.991474e-004 
1.000000e+000 
1.000000e+000 
1.223671e-004 
1.221720e-004 
1.220749e-004 
1.220923e-004 
1.221661e-004 
1.223040e-004 
1.225149e-004 
1.228265e-004 
1.231822e-004 
1.235819e-004 
1.240582e-004 
1.246026e-004 
1.251648e-004 
1.257719e-004 
1.264515e-004 
1.271649e-004 
1.278881e-004 
1.286713e-004 
1.295171e-004 
1.303747e-004 
1.312592e-004 
1.322223e-004 
1.332325e-004 
1.342515e-004 
1.353292e-004 
1.364937e-004 
1.376866e-004 
1.389020e-004 
1.402071e-004 
1.415872e-004 
1.429776e-004 
1.444148e-004 
1.459553e-004 
1.475365e-004 
1.491141e-004 
1.507629e-004 
1.524964e-004 
1.542156e-004 
1.559251e-004 
1.577130e-004 
1.595229e-004 
1.612527e-004 
1.629730e-004 
1.647394e-004 
1.664204e-004 
1.679646e-004 
1.694956e-004 
1.709813e-004 
1.722544e-004 
1.733664e-004 
1.744347e-004 
1.753120e-004 
1.758824e-004 
1.763067e-004 
1.766075e-004 
1.765663e-004 
1.762136e-004 
1.757453e-004 
1.750321e-004 
1.739070e-004 
1.725726e-004 
1.711290e-004 
1.693400e-004 
1.672256e-004 
1.650617e-004 
1.627605e-004 
1.601336e-004 
1.574195e-004 
1.547877e-004 
1.520096e-004 
1.491054e-004 
1.463960e-004 
1.438261e-004 
1.412047e-004 
1.387759e-004 
1.367262e-004 
1.348334e-004 
1.331063e-004 
1.318430e-004 
1.309791e-004 
1.303175e-004 
1.300562e-004 
1.303308e-004 
1.309116e-004 
1.317718e-004 
1.331267e-004 
1.348767e-004 
1.368181e-004 
1.390726e-004 
1.417078e-004 
1.444991e-004 
1.473915e-004 
1.505211e-004 
1.537853e-004 
1.570015e-004 
1.602465e-004 
1.635626e-004 
1.667768e-004 
1.698396e-004 
1.728629e-004 
1.757827e-004 
1.784737e-004 
1.810005e-004 
1.834261e-004 
1.856395e-004 
1.876187e-004 
1.894641e-004 
1.911660e-004 
1.926355e-004 
1.939364e-004 
1.951344e-004 
1.961742e-004 
1.970245e-004 
1.977814e-004 
1.984469e-004 
1.989648e-004 
1.993545e-004 
1.996970e-004 
1.999402e-004 
2.000621e-004 
2.001002e-004 
2.000952e-004 
1.999524e-004 
1.997475e-004 
1.994798e-004 
1.990566e-004 
1.000000e+000 
1.000000e+000 
1.221338e-004 
1.219964e-004 
1.218796e-004 
1.218494e-004 
1.219461e-004 
1.221312e-004 
1.223272e-004 
1.226181e-004 
1.230038e-004 
1.234121e-004 
1.238465e-004 
1.243870e-004 
1.249707e-004 
1.255414e-004 
1.261751e-004 
1.269007e-004 
1.276140e-004 
1.283316e-004 
1.291537e-004 
1.300241e-004 
1.308598e-004 
1.317609e-004 
1.327778e-004 
1.337888e-004 
1.347962e-004 
1.359339e-004 
1.371506e-004 
1.383305e-004 
1.395799e-004 
1.409808e-004 
1.423924e-004 
1.437855e-004 
1.453201e-004 
1.469600e-004 
1.485508e-004 
1.501838e-004 
1.519752e-004 
1.537731e-004 
1.555047e-004 
1.573353e-004 
1.592552e-004 
1.610751e-004 
1.628517e-004 
1.647216e-004 
1.665414e-004 
1.681918e-004 
1.698217e-004 
1.714476e-004 
1.728725e-004 
1.741095e-004 
1.752985e-004 
1.763253e-004 
1.770551e-004 
1.776044e-004 
1.780147e-004 
1.781236e-004 
1.779244e-004 
1.775419e-004 
1.769144e-004 
1.759426e-004 
1.747167e-004 
1.732921e-004 
1.715860e-004 
1.696092e-004 
1.674583e-004 
1.651300e-004 
1.626062e-004 
1.599564e-004 
1.572312e-004 
1.544421e-004 
1.516364e-004 
1.488618e-004 
1.461554e-004 
1.435805e-004 
1.411717e-004 
1.389424e-004 
1.369705e-004 
1.353132e-004 
1.339390e-004 
1.328856e-004 
1.322489e-004 
1.319946e-004 
1.320702e-004 
1.325659e-004 
1.335007e-004 
1.347543e-004 
1.363333e-004 
1.383165e-004 
1.405968e-004 
1.430686e-004 
1.458034e-004 
1.487830e-004 
1.518412e-004 
1.549695e-004 
1.582307e-004 
1.615058e-004 
1.646845e-004 
1.678425e-004 
1.709679e-004 
1.739218e-004 
1.767062e-004 
1.794059e-004 
1.819361e-004 
1.842248e-004 
1.863547e-004 
1.883569e-004 
1.901276e-004 
1.916920e-004 
1.931392e-004 
1.944362e-004 
1.955165e-004 
1.964734e-004 
1.973418e-004 
1.980586e-004 
1.986181e-004 
1.991272e-004 
1.995462e-004 
1.998305e-004 
2.000192e-004 
2.001830e-004 
2.002272e-004 
2.001750e-004 
2.000482e-004 
1.998321e-004 
1.994275e-004 
1.989703e-004 
1.000000e+000 
1.000000e+000 
1.217916e-004 
1.216121e-004 
1.215690e-004 
1.215930e-004 
1.216619e-004 
1.218372e-004 
1.220905e-004 
1.223789e-004 
1.227239e-004 
1.231640e-004 
1.236328e-004 
1.241154e-004 
1.246710e-004 
1.252928e-004 
1.259048e-004 
1.265449e-004 
1.272720e-004 
1.280265e-004 
1.287639e-004 
1.295714e-004 
1.304641e-004 
1.313509e-004 
1.322529e-004 
1.332694e-004 
1.343454e-004 
1.354046e-004 
1.365395e-004 
1.378064e-004 
1.390903e-004 
1.403803e-004 
1.418072e-004 
1.433390e-004 
1.448480e-004 
1.464167e-004 
1.481485e-004 
1.499135e-004 
1.516405e-004 
1.534857e-004 
1.554535e-004 
1.573586e-004 
1.592430e-004 
1.612654e-004 
1.632924e-004 
1.651715e-004 
1.670647e-004 
1.690338e-004 
1.708383e-004 
1.724569e-004 
1.741029e-004 
1.756671e-004 
1.769130e-004 
1.779951e-004 
1.790510e-004 
1.798159e-004 
1.802028e-004 
1.804800e-004 
1.805949e-004 
1.802594e-004 
1.796191e-004 
1.788970e-004 
1.778471e-004 
1.763446e-004 
1.747049e-004 
1.729493e-004 
1.707857e-004 
1.683604e-004 
1.659626e-004 
1.633922e-004 
1.605238e-004 
1.576951e-004 
1.549797e-004 
1.521151e-004 
1.492478e-004 
1.466776e-004 
1.442417e-004 
1.418301e-004 
1.397514e-004 
1.380738e-004 
1.365655e-004 
1.353447e-004 
1.346460e-004 
1.343106e-004 
1.342301e-004 
1.346229e-004 
1.355001e-004 
1.366461e-004 
1.381182e-004 
1.400453e-004 
1.422621e-004 
1.446528e-004 
1.473349e-004 
1.502727e-004 
1.532788e-004 
1.563646e-004 
1.595921e-004 
1.628258e-004 
1.659698e-004 
1.690961e-004 
1.721779e-004 
1.750891e-004 
1.778408e-004 
1.804905e-004 
1.829628e-004 
1.852062e-004 
1.872876e-004 
1.892179e-004 
1.909289e-004 
1.924441e-004 
1.938259e-004 
1.950486e-004 
1.960829e-004 
1.969889e-004 
1.977918e-004 
1.984573e-004 
1.989932e-004 
1.994560e-004 
1.998321e-004 
2.000992e-004 
2.002822e-004 
2.004162e-004 
2.004498e-004 
2.003773e-004 
2.002274e-004 
2.000185e-004 
1.996772e-004 
1.991545e-004 
1.000000e+000 
1.000000e+000 
1.213930e-004 
1.212364e-004 
1.211669e-004 
1.212242e-004 
1.213239e-004 
1.214882e-004 
1.217602e-004 
1.220869e-004 
1.224223e-004 
1.228399e-004 
1.233349e-004 
1.238299e-004 
1.243460e-004 
1.249536e-004 
1.255874e-004 
1.262035e-004 
1.268822e-004 
1.276399e-004 
1.283820e-004 
1.291402e-004 
1.300017e-004 
1.309068e-004 
1.317932e-004 
1.327620e-004 
1.338420e-004 
1.349282e-004 
1.360405e-004 
1.372920e-004 
1.386220e-004 
1.399484e-004 
1.413715e-004 
1.429432e-004 
1.445418e-004 
1.461665e-004 
1.479391e-004 
1.498116e-004 
1.516720e-004 
1.536041e-004 
1.556727e-004 
1.577544e-004 
1.598099e-004 
1.619507e-004 
1.641422e-004 
1.662569e-004 
1.683363e-004 
1.704451e-004 
1.724745e-004 
1.743573e-004 
1.761664e-004 
1.778859e-004 
1.794045e-004 
1.807240e-004 
1.818881e-004 
1.828347e-004 
1.835052e-004 
1.839264e-004 
1.841007e-004 
1.839850e-004 
1.835667e-004 
1.828580e-004 
1.818671e-004 
1.805962e-004 
1.790313e-004 
1.771898e-004 
1.751331e-004 
1.728648e-004 
1.703570e-004 
1.676937e-004 
1.649624e-004 
1.621131e-004 
1.591649e-004 
1.562814e-004 
1.534817e-004 
1.506866e-004 
1.480320e-004 
1.456636e-004 
1.434791e-004 
1.414763e-004 
1.398695e-004 
1.386522e-004 
1.376791e-004 
1.370886e-004 
1.370160e-004 
1.372861e-004 
1.378542e-004 
1.389134e-004 
1.403962e-004 
1.420987e-004 
1.441239e-004 
1.465549e-004 
1.491689e-004 
1.518902e-004 
1.548685e-004 
1.580049e-004 
1.610915e-004 
1.642074e-004 
1.674157e-004 
1.705170e-004 
1.734481e-004 
1.763462e-004 
1.791463e-004 
1.816886e-004 
1.840562e-004 
1.863329e-004 
1.883850e-004 
1.901750e-004 
1.918434e-004 
1.933750e-004 
1.946572e-004 
1.957660e-004 
1.968026e-004 
1.976802e-004 
1.983642e-004 
1.989770e-004 
1.995321e-004 
1.999319e-004 
2.002234e-004 
2.005011e-004 
2.006947e-004 
2.007521e-004 
2.007626e-004 
2.007469e-004 
2.005894e-004 
2.002872e-004 
1.998916e-004 
1.994348e-004 
1.000000e+000 
1.000000e+000 
1.208267e-004 
1.207317e-004 
1.206981e-004 
1.207567e-004 
1.209124e-004 
1.211149e-004 
1.213499e-004 
1.216897e-004 
1.220918e-004 
1.224907e-004 
1.229374e-004 
1.234807e-004 
1.240262e-004 
1.245597e-004 
1.251776e-004 
1.258592e-004 
1.265009e-004 
1.271734e-004 
1.279596e-004 
1.287598e-004 
1.295268e-004 
1.303993e-004 
1.313806e-004 
1.323340e-004 
1.333177e-004 
1.344709e-004 
1.356868e-004 
1.368717e-004 
1.381847e-004 
1.396781e-004 
1.411695e-004 
1.426822e-004 
1.444062e-004 
1.462505e-004 
1.480470e-004 
1.499554e-004 
1.520875e-004 
1.542238e-004 
1.563136e-004 
1.585913e-004 
1.609980e-004 
1.632816e-004 
1.655648e-004 
1.680291e-004 
1.704333e-004 
1.726316e-004 
1.748794e-004 
1.771772e-004 
1.792007e-004 
1.810144e-004 
1.828687e-004 
1.845401e-004 
1.857980e-004 
1.869049e-004 
1.879407e-004 
1.885574e-004 
1.887675e-004 
1.888827e-004 
1.887368e-004 
1.880629e-004 
1.871244e-004 
1.860805e-004 
1.846141e-004 
1.827191e-004 
1.807431e-004 
1.785918e-004 
1.760199e-004 
1.732883e-004 
1.706003e-004 
1.677040e-004 
1.646067e-004 
1.616464e-004 
1.587772e-004 
1.558112e-004 
1.529861e-004 
1.504853e-004 
1.481184e-004 
1.459062e-004 
1.441123e-004 
1.426899e-004 
1.415003e-004 
1.407120e-004 
1.404232e-004 
1.404747e-004 
1.408681e-004 
1.417403e-004 
1.430105e-004 
1.445612e-004 
1.464624e-004 
1.487171e-004 
1.511867e-004 
1.538411e-004 
1.567136e-004 
1.597135e-004 
1.627495e-004 
1.658337e-004 
1.689367e-004 
1.719668e-004 
1.749010e-004 
1.777469e-004 
1.804526e-004 
1.829779e-004 
1.853381e-004 
1.875267e-004 
1.895116e-004 
1.913012e-004 
1.929157e-004 
1.943468e-004 
1.955948e-004 
1.966862e-004 
1.976318e-004 
1.984335e-004 
1.991086e-004 
1.996771e-004 
2.001423e-004 
2.005153e-004 
2.008066e-004 
2.010252e-004 
2.011702e-004 
2.012485e-004 
2.012492e-004 
2.011721e-004 
2.010031e-004 
2.007651e-004 
2.004154e-004 
1.998947e-004 
1.000000e+000 
1.000000e+000 
1.201991e-004 
1.201651e-004 
1.201747e-004 
1.202352e-004 
1.203961e-004 
1.206553e-004 
1.209259e-004 
1.212441e-004 
1.216529e-004 
1.221007e-004 
1.225421e-004 
1.230482e-004 
1.236180e-004 
1.241810e-004 
1.247555e-004 
1.254107e-004 
1.260938e-004 
1.267640e-004 
1.274927e-004 
1.283035e-004 
1.291195e-004 
1.299624e-004 
1.309108e-004 
1.319272e-004 
1.329583e-004 
1.340806e-004 
1.353298e-004 
1.366319e-004 
1.379917e-004 
1.394960e-004 
1.411175e-004 
1.427921e-004 
1.445767e-004 
1.465204e-004 
1.485518e-004 
1.506481e-004 
1.528794e-004 
1.552364e-004 
1.576412e-004 
1.601081e-004 
1.626811e-004 
1.653080e-004 
1.679271e-004 
1.705632e-004 
1.732256e-004 
1.758452e-004 
1.783734e-004 
1.808311e-004 
1.832109e-004 
1.854345e-004 
1.874577e-004 
1.893152e-004 
1.909920e-004 
1.923884e-004 
1.934871e-004 
1.943599e-004 
1.949576e-004 
1.951674e-004 
1.950521e-004 
1.946984e-004 
1.939863e-004 
1.928567e-004 
1.914779e-004 
1.898706e-004 
1.878678e-004 
1.855584e-004 
1.831469e-004 
1.805174e-004 
1.775740e-004 
1.745725e-004 
1.716046e-004 
1.684629e-004 
1.652541e-004 
1.622678e-004 
1.593847e-004 
1.564774e-004 
1.538467e-004 
1.516043e-004 
1.495017e-004 
1.476385e-004 
1.463107e-004 
1.453592e-004 
1.446222e-004 
1.443754e-004 
1.446794e-004 
1.452425e-004 
1.461269e-004 
1.475575e-004 
1.493246e-004 
1.512416e-004 
1.535149e-004 
1.561396e-004 
1.588217e-004 
1.615888e-004 
1.645967e-004 
1.676414e-004 
1.705561e-004 
1.735009e-004 
1.764682e-004 
1.792256e-004 
1.818012e-004 
1.843376e-004 
1.866983e-004 
1.887681e-004 
1.906938e-004 
1.925106e-004 
1.940622e-004 
1.953844e-004 
1.966209e-004 
1.977048e-004 
1.985494e-004 
1.992823e-004 
1.999634e-004 
2.004849e-004 
2.008565e-004 
2.012106e-004 
2.015070e-004 
2.016637e-004 
2.017560e-004 
2.018537e-004 
2.018505e-004 
2.017359e-004 
2.015802e-004 
2.013518e-004 
2.009297e-004 
2.004297e-004 
1.000000e+000 
1.000000e+000 
1.194996e-004 
1.194504e-004 
1.195315e-004 
1.196873e-004 
1.198455e-004 
1.200893e-004 
1.204315e-004 
1.207854e-004 
1.211479e-004 
1.216159e-004 
1.221250e-004 
1.225989e-004 
1.231237e-004 
1.237490e-004 
1.243481e-004 
1.249273e-004 
1.256175e-004 
1.263680e-004 
1.270596e-004 
1.278110e-004 
1.287103e-004 
1.296116e-004 
1.304907e-004 
1.315343e-004 
1.327088e-004 
1.338483e-004 
1.350703e-004 
1.365265e-004 
1.380480e-004 
1.395575e-004 
1.412778e-004 
1.432199e-004 
1.451522e-004 
1.471608e-004 
1.494598e-004 
1.518771e-004 
1.542466e-004 
1.568024e-004 
1.596122e-004 
1.623840e-004 
1.651280e-004 
1.681105e-004 
1.711779e-004 
1.740659e-004 
1.769804e-004 
1.800588e-004 
1.829745e-004 
1.856461e-004 
1.883708e-004 
1.910481e-004 
1.933444e-004 
1.954214e-004 
1.974852e-004 
1.992283e-004 
2.005037e-004 
2.016207e-004 
2.025536e-004 
2.029642e-004 
2.029787e-004 
2.028530e-004 
2.023445e-004 
2.012980e-004 
2.000169e-004 
1.985420e-004 
1.965942e-004 
1.942909e-004 
1.918971e-004 
1.892527e-004 
1.862518e-004 
1.831707e-004 
1.800795e-004 
1.767955e-004 
1.734428e-004 
1.702416e-004 
1.670991e-004 
1.639804e-004 
1.610981e-004 
1.584974e-004 
1.560852e-004 
1.539677e-004 
1.522615e-004 
1.509017e-004 
1.498924e-004 
1.493315e-004 
1.491961e-004 
1.494381e-004 
1.500992e-004 
1.511663e-004 
1.525732e-004 
1.543165e-004 
1.563748e-004 
1.586682e-004 
1.611682e-004 
1.638556e-004 
1.666444e-004 
1.694833e-004 
1.723709e-004 
1.752416e-004 
1.780218e-004 
1.807202e-004 
1.833200e-004 
1.857466e-004 
1.879924e-004 
1.900915e-004 
1.920021e-004 
1.936908e-004 
1.952058e-004 
1.965640e-004 
1.977205e-004 
1.987005e-004 
1.995610e-004 
2.002855e-004 
2.008540e-004 
2.013293e-004 
2.017325e-004 
2.020292e-004 
2.022353e-004 
2.024083e-004 
2.025182e-004 
2.025442e-004 
2.025148e-004 
2.024440e-004 
2.022717e-004 
2.020233e-004 
2.017112e-004 
2.012451e-004 
1.000000e+000 
1.000000e+000 
1.187252e-004 
1.187534e-004 
1.188257e-004 
1.190162e-004 
1.192534e-004 
1.195102e-004 
1.198392e-004 
1.202484e-004 
1.206545e-004 
1.210842e-004 
1.215931e-004 
1.221356e-004 
1.226555e-004 
1.232252e-004 
1.238668e-004 
1.245060e-004 
1.251451e-004 
1.258722e-004 
1.266567e-004 
1.274369e-004 
1.282761e-004 
1.292353e-004 
1.302424e-004 
1.312840e-004 
1.324555e-004 
1.337617e-004 
1.351226e-004 
1.365834e-004 
1.382291e-004 
1.400067e-004 
1.418617e-004 
1.438822e-004 
1.461070e-004 
1.484431e-004 
1.508805e-004 
1.535196e-004 
1.563336e-004 
1.592134e-004 
1.621991e-004 
1.653713e-004 
1.686304e-004 
1.718803e-004 
1.752108e-004 
1.786487e-004 
1.820289e-004 
1.853096e-004 
1.886176e-004 
1.918873e-004 
1.949252e-004 
1.977921e-004 
2.006048e-004 
2.031808e-004 
2.053808e-004 
2.073844e-004 
2.092134e-004 
2.106021e-004 
2.115703e-004 
2.123524e-004 
2.127987e-004 
2.126843e-004 
2.122376e-004 
2.116006e-004 
2.104750e-004 
2.088436e-004 
2.070541e-004 
2.050197e-004 
2.024613e-004 
1.996473e-004 
1.968277e-004 
1.937027e-004 
1.902371e-004 
1.868563e-004 
1.835231e-004 
1.799395e-004 
1.763965e-004 
1.731905e-004 
1.700247e-004 
1.668610e-004 
1.641314e-004 
1.617929e-004 
1.595463e-004 
1.576628e-004 
1.563901e-004 
1.554175e-004 
1.546950e-004 
1.545709e-004 
1.549431e-004 
1.555159e-004 
1.564893e-004 
1.580019e-004 
1.597379e-004 
1.616280e-004 
1.639036e-004 
1.664237e-004 
1.689267e-004 
1.715442e-004 
1.743478e-004 
1.770760e-004 
1.796700e-004 
1.822994e-004 
1.848614e-004 
1.871690e-004 
1.893315e-004 
1.914286e-004 
1.932917e-004 
1.948931e-004 
1.963873e-004 
1.977407e-004 
1.988318e-004 
1.997575e-004 
2.006152e-004 
2.013088e-004 
2.018127e-004 
2.022615e-004 
2.026584e-004 
2.029115e-004 
2.030747e-004 
2.032446e-004 
2.033469e-004 
2.033363e-004 
2.032982e-004 
2.032567e-004 
2.030990e-004 
2.028189e-004 
2.024810e-004 
2.020987e-004 
1.000000e+000 
1.000000e+000 
1.178152e-004 
1.179467e-004 
1.180954e-004 
1.182819e-004 
1.185713e-004 
1.189079e-004 
1.192232e-004 
1.196188e-004 
1.201003e-004 
1.205575e-004 
1.210149e-004 
1.215845e-004 
1.221765e-004 
1.227159e-004 
1.233257e-004 
1.240438e-004 
1.247212e-004 
1.253965e-004 
1.262215e-004 
1.271112e-004 
1.279520e-004 
1.289075e-004 
1.300508e-004 
1.312052e-004 
1.323866e-004 
1.338066e-004 
1.353866e-004 
1.369620e-004 
1.387038e-004 
1.407442e-004 
1.428691e-004 
1.450429e-004 
1.475161e-004 
1.502398e-004 
1.529731e-004 
1.558588e-004 
1.590827e-004 
1.624109e-004 
1.657160e-004 
1.692585e-004 
1.730310e-004 
1.767246e-004 
1.804109e-004 
1.843194e-004 
1.882248e-004 
1.919115e-004 
1.956147e-004 
1.993848e-004 
2.028882e-004 
2.061234e-004 
2.093420e-004 
2.123704e-004 
2.149533e-004 
2.172878e-004 
2.194769e-004 
2.212279e-004 
2.225023e-004 
2.235465e-004 
2.242582e-004 
2.244160e-004 
2.241837e-004 
2.236876e-004 
2.227245e-004 
2.212742e-004 
2.195490e-004 
2.175090e-004 
2.150290e-004 
2.122528e-004 
2.092891e-004 
2.060443e-004 
2.025587e-004 
1.989827e-004 
1.953133e-004 
1.915474e-004 
1.878059e-004 
1.841387e-004 
1.805515e-004 
1.771385e-004 
1.739534e-004 
1.709960e-004 
1.683554e-004 
1.660884e-004 
1.641527e-004 
1.626067e-004 
1.615381e-004 
1.608708e-004 
1.605766e-004 
1.607632e-004 
1.613825e-004 
1.623014e-004 
1.635827e-004 
1.652568e-004 
1.671489e-004 
1.692095e-004 
1.715285e-004 
1.739935e-004 
1.764475e-004 
1.789572e-004 
1.815340e-004 
1.840013e-004 
1.863313e-004 
1.886241e-004 
1.907924e-004 
1.927199e-004 
1.944965e-004 
1.961674e-004 
1.976100e-004 
1.988272e-004 
1.999402e-004 
2.009130e-004 
2.016639e-004 
2.022897e-004 
2.028594e-004 
2.032879e-004 
2.035737e-004 
2.038355e-004 
2.040532e-004 
2.041503e-004 
2.041938e-004 
2.042517e-004 
2.042310e-004 
2.041045e-004 
2.039617e-004 
2.037993e-004 
2.035041e-004 
2.030715e-004 
1.000000e+000 
1.000000e+000 
1.168934e-004 
1.170703e-004 
1.173037e-004 
1.175488e-004 
1.178274e-004 
1.182039e-004 
1.186053e-004 
1.189946e-004 
1.194428e-004 
1.199723e-004 