# vtk DataFile Version 2.0
2D-ADE data file 
ASCII
DATASET RECTILINEAR_GRID
DIMENSIONS 128 128 1
X_COORDINATES 128 int
0 1 2 3 4 5 6 7 8 9 10 11 12 13 14 15 16 17 18 19 20 21 22 23 24 25 26 27 28 29 30 31 32 33 34 35 36 37 38 39 40 41 42 43 44 45 46 47 48 49 50 51 52 53 54 55 56 57 58 59 60 61 62 63 64 65 66 67 68 69 70 71 72 73 74 75 76 77 78 79 80 81 82 83 84 85 86 87 88 89 90 91 92 93 94 95 96 97 98 99 100 101 102 103 104 105 106 107 108 109 110 111 112 113 114 115 116 117 118 119 120 121 122 123 124 125 126 127 
Y_COORDINATES 128 int
0 1 2 3 4 5 6 7 8 9 10 11 12 13 14 15 16 17 18 19 20 21 22 23 24 25 26 27 28 29 30 31 32 33 34 35 36 37 38 39 40 41 42 43 44 45 46 47 48 49 50 51 52 53 54 55 56 57 58 59 60 61 62 63 64 65 66 67 68 69 70 71 72 73 74 75 76 77 78 79 80 81 82 83 84 85 86 87 88 89 90 91 92 93 94 95 96 97 98 99 100 101 102 103 104 105 106 107 108 109 110 111 112 113 114 115 116 117 118 119 120 121 122 123 124 125 126 127 
Z_COORDINATES 1 int
0
POINT_DATA 16384 
SCALARS density double 1
LOOKUP_TABLE default
1.000000e+000 
1.000000e+000 
1.000000e+000 
1.000000e+000 
1.000000e+000 
1.000000e+000 
1.000000e+000 
1.000000e+000 
1.000000e+000 
1.000000e+000 
1.000000e+000 
1.000000e+000 
1.000000e+000 
1.000000e+000 
1.000000e+000 
1.000000e+000 
1.000000e+000 
1.000000e+000 
1.000000e+000 
1.000000e+000 
1.000000e+000 
1.000000e+000 
1.000000e+000 
1.000000e+000 
1.000000e+000 
1.000000e+000 
1.000000e+000 
1.000000e+000 
1.000000e+000 
1.000000e+000 
1.000000e+000 
1.000000e+000 
1.000000e+000 
1.000000e+000 
1.000000e+000 
1.000000e+000 
1.000000e+000 
1.000000e+000 
1.000000e+000 
1.000000e+000 
1.000000e+000 
1.000000e+000 
1.000000e+000 
1.000000e+000 
1.000000e+000 
1.000000e+000 
1.000000e+000 
1.000000e+000 
1.000000e+000 
1.000000e+000 
1.000000e+000 
1.000000e+000 
1.000000e+000 
1.000000e+000 
1.000000e+000 
1.000000e+000 
1.000000e+000 
1.000000e+000 
1.000000e+000 
1.000000e+000 
1.000000e+000 
1.000000e+000 
1.000000e+000 
1.000000e+000 
1.000000e+000 
1.000000e+000 
1.000000e+000 
1.000000e+000 
1.000000e+000 
1.000000e+000 
1.000000e+000 
1.000000e+000 
1.000000e+000 
1.000000e+000 
1.000000e+000 
1.000000e+000 
1.000000e+000 
1.000000e+000 
1.000000e+000 
1.000000e+000 
1.000000e+000 
1.000000e+000 
1.000000e+000 
1.000000e+000 
1.000000e+000 
1.000000e+000 
1.000000e+000 
1.000000e+000 
1.000000e+000 
1.000000e+000 
1.000000e+000 
1.000000e+000 
1.000000e+000 
1.000000e+000 
1.000000e+000 
1.000000e+000 
1.000000e+000 
1.000000e+000 
1.000000e+000 
1.000000e+000 
1.000000e+000 
1.000000e+000 
1.000000e+000 
1.000000e+000 
1.000000e+000 
1.000000e+000 
1.000000e+000 
1.000000e+000 
1.000000e+000 
1.000000e+000 
1.000000e+000 
1.000000e+000 
1.000000e+000 
1.000000e+000 
1.000000e+000 
1.000000e+000 
1.000000e+000 
1.000000e+000 
1.000000e+000 
1.000000e+000 
1.000000e+000 
1.000000e+000 
1.000000e+000 
1.000000e+000 
1.000000e+000 
1.000000e+000 
1.000000e+000 
1.000000e+000 
1.000000e+000 
1.177252e-004 
1.176307e-004 
1.174979e-004 
1.174220e-004 
1.173791e-004 
1.175317e-004 
1.177701e-004 
1.181264e-004 
1.185456e-004 
1.191305e-004 
1.197698e-004 
1.204715e-004 
1.212504e-004 
1.221371e-004 
1.230350e-004 
1.239748e-004 
1.250086e-004 
1.260952e-004 
1.271789e-004 
1.283296e-004 
1.295824e-004 
1.308459e-004 
1.321326e-004 
1.335287e-004 
1.350090e-004 
1.364787e-004 
1.380260e-004 
1.397022e-004 
1.414166e-004 
1.431278e-004 
1.449699e-004 
1.469099e-004 
1.488320e-004 
1.507858e-004 
1.528856e-004 
1.549986e-004 
1.570556e-004 
1.591848e-004 
1.614046e-004 
1.635249e-004 
1.655850e-004 
1.677213e-004 
1.698157e-004 
1.717132e-004 
1.735688e-004 
1.754261e-004 
1.770670e-004 
1.784686e-004 
1.798286e-004 
1.810301e-004 
1.818702e-004 
1.824916e-004 
1.830091e-004 
1.831752e-004 
1.829367e-004 
1.825276e-004 
1.818852e-004 
1.807670e-004 
1.793274e-004 
1.777403e-004 
1.757885e-004 
1.733980e-004 
1.708489e-004 
1.681351e-004 
1.650348e-004 
1.617065e-004 
1.583795e-004 
1.548854e-004 
1.511682e-004 
1.475175e-004 
1.439783e-004 
1.403699e-004 
1.368474e-004 
1.336405e-004 
1.306276e-004 
1.277649e-004 
1.252985e-004 
1.232742e-004 
1.215398e-004 
1.202047e-004 
1.194307e-004 
1.191088e-004 
1.191707e-004 
1.197688e-004 
1.208971e-004 
1.224105e-004 
1.243310e-004 
1.267359e-004 
1.294967e-004 
1.325258e-004 
1.358669e-004 
1.394922e-004 
1.432489e-004 
1.471269e-004 
1.511317e-004 
1.551795e-004 
1.591636e-004 
1.631247e-004 
1.670150e-004 
1.707649e-004 
1.743285e-004 
1.777638e-004 
1.809874e-004 
1.839902e-004 
1.867593e-004 
1.893533e-004 
1.916764e-004 
1.937905e-004 
1.956730e-004 
1.973875e-004 
1.988357e-004 
2.001368e-004 
2.012236e-004 
2.021825e-004 
2.029022e-004 
2.035417e-004 
2.039733e-004 
2.043223e-004 
2.044468e-004 
2.045397e-004 
2.044283e-004 
2.042781e-004 
2.039388e-004 
2.036394e-004 
2.033671e-004 
2.032423e-004 
1.000000e+000 
1.000000e+000 
1.178091e-004 
1.177116e-004 
1.176029e-004 
1.176271e-004 
1.175991e-004 
1.177652e-004 
1.179711e-004 
1.183577e-004 
1.187381e-004 
1.192896e-004 
1.198926e-004 
1.205868e-004 
1.213052e-004 
1.221485e-004 
1.230233e-004 
1.239329e-004 
1.249051e-004 
1.259588e-004 
1.270269e-004 
1.281296e-004 
1.293292e-004 
1.305712e-004 
1.318351e-004 
1.331676e-004 
1.346052e-004 
1.360552e-004 
1.375602e-004 
1.391624e-004 
1.408439e-004 
1.425270e-004 
1.443033e-004 
1.461684e-004 
1.480683e-004 
1.499788e-004 
1.519937e-004 
1.540468e-004 
1.560934e-004 
1.581589e-004 
1.602905e-004 
1.623857e-004 
1.644421e-004 
1.664945e-004 
1.685274e-004 
1.704490e-004 
1.722930e-004 
1.740626e-004 
1.757076e-004 
1.771762e-004 
1.785017e-004 
1.796531e-004 
1.805896e-004 
1.812865e-004 
1.817544e-004 
1.819644e-004 
1.818994e-004 
1.815322e-004 
1.808727e-004 
1.799266e-004 
1.786733e-004 
1.770854e-004 
1.752198e-004 
1.730979e-004 
1.706712e-004 
1.679649e-004 
1.650902e-004 
1.620269e-004 
1.587330e-004 
1.553355e-004 
1.519300e-004 
1.484337e-004 
1.448941e-004 
1.415029e-004 
1.382481e-004 
1.350542e-004 
1.320941e-004 
1.294972e-004 
1.271376e-004 
1.250509e-004 
1.234482e-004 
1.222912e-004 
1.214472e-004 
1.210800e-004 
1.212809e-004 
1.218760e-004 
1.228412e-004 
1.243575e-004 
1.263173e-004 
1.285558e-004 
1.311616e-004 
1.341977e-004 
1.374304e-004 
1.408262e-004 
1.444815e-004 
1.483111e-004 
1.521024e-004 
1.559600e-004 
1.598812e-004 
1.637227e-004 
1.673860e-004 
1.710340e-004 
1.745365e-004 
1.778179e-004 
1.808782e-004 
1.838582e-004 
1.865464e-004 
1.890109e-004 
1.912599e-004 
1.933925e-004 
1.951783e-004 
1.968312e-004 
1.982716e-004 
1.995993e-004 
2.005925e-004 
2.015696e-004 
2.023067e-004 
2.029727e-004 
2.033360e-004 
2.037755e-004 
2.039216e-004 
2.040620e-004 
2.039373e-004 
2.039403e-004 
2.036514e-004 
2.034450e-004 
2.032467e-004 
2.031535e-004 
1.000000e+000 
1.000000e+000 
1.179312e-004 
1.178343e-004 
1.177163e-004 
1.176788e-004 
1.177558e-004 
1.179080e-004 
1.181073e-004 
1.184487e-004 
1.188857e-004 
1.193734e-004 
1.199300e-004 
1.206167e-004 
1.213421e-004 
1.220899e-004 
1.229302e-004 
1.238593e-004 
1.247793e-004 
1.257396e-004 
1.268136e-004 
1.279234e-004 
1.290180e-004 
1.302065e-004 
1.315037e-004 
1.327897e-004 
1.341039e-004 
1.355606e-004 
1.370812e-004 
1.385729e-004 
1.401641e-004 
1.418987e-004 
1.436276e-004 
1.453536e-004 
1.472352e-004 
1.491942e-004 
1.510889e-004 
1.530388e-004 
1.551375e-004 
1.571981e-004 
1.591780e-004 
1.612603e-004 
1.633953e-004 
1.653735e-004 
1.672981e-004 
1.693051e-004 
1.711972e-004 
1.728618e-004 
1.745055e-004 
1.761123e-004 
1.774294e-004 
1.785195e-004 
1.795703e-004 
1.803921e-004 
1.808241e-004 
1.810761e-004 
1.811889e-004 
1.808970e-004 
1.802378e-004 
1.794366e-004 
1.783520e-004 
1.768097e-004 
1.750242e-004 
1.730910e-004 
1.707869e-004 
1.681445e-004 
1.654132e-004 
1.625157e-004 
1.593148e-004 
1.560192e-004 
1.527604e-004 
1.493846e-004 
1.459381e-004 
1.426532e-004 
1.395037e-004 
1.364043e-004 
1.335291e-004 
1.309942e-004 
1.287029e-004 
1.266936e-004 
1.251245e-004 
1.239767e-004 
1.231863e-004 
1.228477e-004 
1.230089e-004 
1.235915e-004 
1.245857e-004 
1.260453e-004 
1.279219e-004 
1.301465e-004 
1.327184e-004 
1.356221e-004 
1.387768e-004 
1.421380e-004 
1.456810e-004 
1.493563e-004 
1.530952e-004 
1.568676e-004 
1.606326e-004 
1.643503e-004 
1.679731e-004 
1.714838e-004 
1.748482e-004 
1.780530e-004 
1.810658e-004 
1.838896e-004 
1.865053e-004 
1.889227e-004 
1.911172e-004 
1.931162e-004 
1.949068e-004 
1.965126e-004 
1.979114e-004 
1.991518e-004 
2.002105e-004 
2.011199e-004 
2.018570e-004 
2.024820e-004 
2.029485e-004 
2.033009e-004 
2.035172e-004 
2.036526e-004 
2.036509e-004 
2.035765e-004 
2.034434e-004 
2.032535e-004 
2.030342e-004 
2.028612e-004 
1.000000e+000 
1.000000e+000 
1.180093e-004 
1.178132e-004 
1.177463e-004 
1.177105e-004 
1.177792e-004 
1.179227e-004 
1.181668e-004 
1.184686e-004 
1.188946e-004 
1.193851e-004 
1.199382e-004 
1.205609e-004 
1.212738e-004 
1.220213e-004 
1.228141e-004 
1.236802e-004 
1.245989e-004 
1.255407e-004 
1.265370e-004 
1.276058e-004 
1.287053e-004 
1.298435e-004 
1.310548e-004 
1.323319e-004 
1.336378e-004 
1.350104e-004 
1.364642e-004 
1.379731e-004 
1.395221e-004 
1.411561e-004 
1.428612e-004 
1.446100e-004 
1.464075e-004 
1.482852e-004 
1.502092e-004 
1.521600e-004 
1.541498e-004 
1.561909e-004 
1.582397e-004 
1.602811e-004 
1.623270e-004 
1.643749e-004 
1.663707e-004 
1.683005e-004 
1.701820e-004 
1.719947e-004 
1.736676e-004 
1.752034e-004 
1.766298e-004 
1.778896e-004 
1.789086e-004 
1.797346e-004 
1.803829e-004 
1.807483e-004 
1.808025e-004 
1.806437e-004 
1.802287e-004 
1.794386e-004 
1.783480e-004 
1.770547e-004 
1.754328e-004 
1.734388e-004 
1.712505e-004 
1.688776e-004 
1.661665e-004 
1.632318e-004 
1.602586e-004 
1.571275e-004 
1.537835e-004 
1.504783e-004 
1.472683e-004 
1.439816e-004 
1.407540e-004 
1.378249e-004 
1.350714e-004 
1.324225e-004 
1.301493e-004 
1.283096e-004 
1.267043e-004 
1.254484e-004 
1.247614e-004 
1.244864e-004 
1.245183e-004 
1.250750e-004 
1.261680e-004 
1.275613e-004 
1.293172e-004 
1.315796e-004 
1.341647e-004 
1.369290e-004 
1.400241e-004 
1.434136e-004 
1.468710e-004 
1.504080e-004 
1.541322e-004 
1.578672e-004 
1.614934e-004 
1.651134e-004 
1.687221e-004 
1.721269e-004 
1.753599e-004 
1.785067e-004 
1.814783e-004 
1.841656e-004 
1.866984e-004 
1.890763e-004 
1.912072e-004 
1.930851e-004 
1.948512e-004 
1.964167e-004 
1.977561e-004 
1.989179e-004 
1.999995e-004 
2.008622e-004 
2.015736e-004 
2.021663e-004 
2.026899e-004 
2.029971e-004 
2.032387e-004 
2.033830e-004 
2.034619e-004 
2.033425e-004 
2.032432e-004 
2.030834e-004 
2.028705e-004 
2.025381e-004 
1.000000e+000 
1.000000e+000 
1.180551e-004 
1.178220e-004 
1.176789e-004 
1.176654e-004 
1.177170e-004 
1.178608e-004 
1.181323e-004 
1.184451e-004 
1.188202e-004 
1.193120e-004 
1.198878e-004 
1.204690e-004 
1.211266e-004 
1.218910e-004 
1.226707e-004 
1.234561e-004 
1.243471e-004 
1.253062e-004 
1.262388e-004 
1.272265e-004 
1.283362e-004 
1.294607e-004 
1.305713e-004 
1.318060e-004 
1.331391e-004 
1.344460e-004 
1.358025e-004 
1.373230e-004 
1.388777e-004 
1.404066e-004 
1.420645e-004 
1.438604e-004 
1.456173e-004 
1.473974e-004 
1.493483e-004 
1.513438e-004 
1.532595e-004 
1.552662e-004 
1.574023e-004 
1.594583e-004 
1.614449e-004 
1.635501e-004 
1.656524e-004 
1.675735e-004 
1.694632e-004 
1.714066e-004 
1.731686e-004 
1.747097e-004 
1.762301e-004 
1.776436e-004 
1.787289e-004 
1.796107e-004 
1.804084e-004 
1.809069e-004 
1.810276e-004 
1.809755e-004 
1.807107e-004 
1.800252e-004 
1.790197e-004 
1.778442e-004 
1.763401e-004 
1.744399e-004 
1.723384e-004 
1.700511e-004 
1.674336e-004 
1.645846e-004 
1.616583e-004 
1.585782e-004 
1.553233e-004 
1.520621e-004 
1.488430e-004 
1.456081e-004 
1.424503e-004 
1.394887e-004 
1.367097e-004 
1.341331e-004 
1.318627e-004 
1.299338e-004 
1.283451e-004 
1.271459e-004 
1.263733e-004 
1.260274e-004 
1.261237e-004 
1.266626e-004 
1.276298e-004 
1.290271e-004 
1.308334e-004 
1.329920e-004 
1.354905e-004 
1.383112e-004 
1.413762e-004 
1.446290e-004 
1.480725e-004 
1.516415e-004 
1.552482e-004 
1.588796e-004 
1.625283e-004 
1.660992e-004 
1.695548e-004 
1.729148e-004 
1.761452e-004 
1.791685e-004 
1.820147e-004 
1.846967e-004 
1.871689e-004 
1.894041e-004 
1.914710e-004 
1.933480e-004 
1.950088e-004 
1.964722e-004 
1.978041e-004 
1.989478e-004 
1.999202e-004 
2.007546e-004 
2.014883e-004 
2.020478e-004 
2.025003e-004 
2.028550e-004 
2.031198e-004 
2.032286e-004 
2.032888e-004 
2.032715e-004 
2.031645e-004 
2.029318e-004 
2.025980e-004 
2.022449e-004 
1.000000e+000 
1.000000e+000 
1.178981e-004 
1.176520e-004 
1.175250e-004 
1.175272e-004 
1.175927e-004 
1.177385e-004 
1.179709e-004 
1.183173e-004 
1.187173e-004 
1.191736e-004 
1.197156e-004 
1.203329e-004 
1.209741e-004 
1.216681e-004 
1.224384e-004 
1.232458e-004 
1.240686e-004 
1.249570e-004 
1.259104e-004 
1.268813e-004 
1.278874e-004 
1.289785e-004 
1.301228e-004 
1.312868e-004 
1.325210e-004 
1.338507e-004 
1.352201e-004 
1.366275e-004 
1.381371e-004 
1.397332e-004 
1.413549e-004 
1.430398e-004 
1.448400e-004 
1.466942e-004 
1.485612e-004 
1.505126e-004 
1.525589e-004 
1.546034e-004 
1.566503e-004 
1.587826e-004 
1.609427e-004 
1.630293e-004 
1.651089e-004 
1.672322e-004 
1.692671e-004 
1.711602e-004 
1.730290e-004 
1.748381e-004 
1.764186e-004 
1.778173e-004 
1.791467e-004 
1.802574e-004 
1.810303e-004 
1.816215e-004 
1.820513e-004 
1.820992e-004 
1.817927e-004 
1.813257e-004 
1.805685e-004 
1.793530e-004 
1.778809e-004 
1.762539e-004 
1.742369e-004 
1.718508e-004 
1.693745e-004 
1.667240e-004 
1.637140e-004 
1.605873e-004 
1.575192e-004 
1.542863e-004 
1.509144e-004 
1.477313e-004 
1.446883e-004 
1.416006e-004 
1.387200e-004 
1.362393e-004 
1.339424e-004 
1.318447e-004 
1.302500e-004 
1.290978e-004 
1.281957e-004 
1.277458e-004 
1.278845e-004 
1.283828e-004 
1.292160e-004 
1.305976e-004 
1.324242e-004 
1.344906e-004 
1.369156e-004 
1.397595e-004 
1.427928e-004 
1.459570e-004 
1.493807e-004 
1.529531e-004 
1.564881e-004 
1.600573e-004 
1.636946e-004 
1.672231e-004 
1.705910e-004 
1.739051e-004 
1.770967e-004 
1.800411e-004 
1.828013e-004 
1.854375e-004 
1.878389e-004 
1.899861e-004 
1.919785e-004 
1.938063e-004 
1.953839e-004 
1.967773e-004 
1.980514e-004 
1.991535e-004 
2.000553e-004 
2.008538e-004 
2.015506e-004 
2.020932e-004 
2.025018e-004 
2.028571e-004 
2.031074e-004 
2.032338e-004 
2.032713e-004 
2.032608e-004 
2.031064e-004 
2.028893e-004 
2.026018e-004 
2.021466e-004 
1.000000e+000 
1.000000e+000 
1.176598e-004 
1.174727e-004 
1.173147e-004 
1.172642e-004 
1.173561e-004 
1.175511e-004 
1.177692e-004 
1.180980e-004 
1.185292e-004 
1.189937e-004 
1.194944e-004 
1.201092e-004 
1.207694e-004 
1.214234e-004 
1.221463e-004 
1.229633e-004 
1.237696e-004 
1.245872e-004 
1.255141e-004 
1.264918e-004 
1.274412e-004 
1.284665e-004 
1.296142e-004 
1.307635e-004 
1.319219e-004 
1.332240e-004 
1.346148e-004 
1.359819e-004 
1.374357e-004 
1.390553e-004 
1.406982e-004 
1.423399e-004 
1.441408e-004 
1.460606e-004 
1.479457e-004 
1.498903e-004 
1.520080e-004 
1.541431e-004 
1.562244e-004 
1.584170e-004 
1.607061e-004 
1.629000e-004 
1.650556e-004 
1.673060e-004 
1.695022e-004 
1.715229e-004 
1.735148e-004 
1.754893e-004 
1.772445e-004 
1.787912e-004 
1.802657e-004 
1.815485e-004 
1.825015e-004 
1.832389e-004 
1.837983e-004 
1.840140e-004 
1.838779e-004 
1.835128e-004 
1.828551e-004 
1.818050e-004 
1.804529e-004 
1.788544e-004 
1.769275e-004 
1.746855e-004 
1.722272e-004 
1.695519e-004 
1.666463e-004 
1.635843e-004 
1.604204e-004 
1.571724e-004 
1.538945e-004 
1.506395e-004 
1.474510e-004 
1.444007e-004 
1.415295e-004 
1.388562e-004 
1.364668e-004 
1.344253e-004 
1.327042e-004 
1.313466e-004 
1.304544e-004 
1.299953e-004 
1.299182e-004 
1.303167e-004 
1.312099e-004 
1.324747e-004 
1.341169e-004 
1.362136e-004 
1.386518e-004 
1.413210e-004 
1.442895e-004 
1.475321e-004 
1.508749e-004 
1.543051e-004 
1.578795e-004 
1.614711e-004 
1.649646e-004 
1.684326e-004 
1.718567e-004 
1.750938e-004 
1.781447e-004 
1.810918e-004 
1.838470e-004 
1.863387e-004 
1.886502e-004 
1.908119e-004 
1.927203e-004 
1.944034e-004 
1.959511e-004 
1.973316e-004 
1.984802e-004 
1.994934e-004 
2.004063e-004 
2.011578e-004 
2.017440e-004 
2.022737e-004 
2.027068e-004 
2.030012e-004 
2.031955e-004 
2.033616e-004 
2.034032e-004 
2.033471e-004 
2.032096e-004 
2.029761e-004 
2.025447e-004 
2.020577e-004 
1.000000e+000 
1.000000e+000 
1.172853e-004 
1.170515e-004 
1.169741e-004 
1.169789e-004 
1.170435e-004 
1.172305e-004 
1.175076e-004 
1.178339e-004 
1.182292e-004 
1.187285e-004 
1.192623e-004 
1.198185e-004 
1.204533e-004 
1.211562e-004 
1.218523e-004 
1.225822e-004 
1.234007e-004 
1.242482e-004 
1.250846e-004 
1.259976e-004 
1.269992e-004 
1.280025e-004 
1.290325e-004 
1.301862e-004 
1.314083e-004 
1.326285e-004 
1.339397e-004 
1.353951e-004 
1.368824e-004 
1.383954e-004 
1.400615e-004 
1.418476e-004 
1.436301e-004 
1.454919e-004 
1.475322e-004 
1.496220e-004 
1.516925e-004 
1.538965e-004 
1.562349e-004 
1.585236e-004 
1.608033e-004 
1.632272e-004 
1.656596e-004 
1.679471e-004 
1.702472e-004 
1.726162e-004 
1.748117e-004 
1.768085e-004 
1.788145e-004 
1.807163e-004 
1.822746e-004 
1.836392e-004 
1.849432e-004 
1.859193e-004 
1.864769e-004 
1.868810e-004 
1.870772e-004 
1.867756e-004 
1.861197e-004 
1.853322e-004 
1.841672e-004 
1.824999e-004 
1.806467e-004 
1.786315e-004 
1.761642e-004 
1.733939e-004 
1.706142e-004 
1.676294e-004 
1.643187e-004 
1.610256e-004 
1.578298e-004 
1.544750e-004 
1.511147e-004 
1.480556e-004 
1.451412e-004 
1.422694e-004 
1.397556e-004 
1.376733e-004 
1.357971e-004 
1.342518e-004 
1.332751e-004 
1.327113e-004 
1.324566e-004 
1.327308e-004 
1.335434e-004 
1.346796e-004 
1.361965e-004 
1.382178e-004 
1.405741e-004 
1.431476e-004 
1.460495e-004 
1.492357e-004 
1.525149e-004 
1.558935e-004 
1.594240e-004 
1.629649e-004 
1.664173e-004 
1.698465e-004 
1.732189e-004 
1.764070e-004 
1.794196e-004 
1.823091e-004 
1.849987e-004 
1.874389e-004 
1.896945e-004 
1.917755e-004 
1.936163e-004 
1.952429e-004 
1.967165e-004 
1.980139e-004 
1.991095e-004 
2.000642e-004 
2.009038e-004 
2.015973e-004 
2.021547e-004 
2.026325e-004 
2.030177e-004 
2.032912e-004 
2.034776e-004 
2.036115e-004 
2.036409e-004 
2.035619e-004 
2.034005e-004 
2.031758e-004 
2.028118e-004 
2.022555e-004 
1.000000e+000 
1.000000e+000 
1.168456e-004 
1.166369e-004 
1.165279e-004 
1.165648e-004 
1.166617e-004 
1.168417e-004 
1.171425e-004 
1.175087e-004 
1.178960e-004 
1.183763e-004 
1.189390e-004 
1.195066e-004 
1.201018e-004 
1.207915e-004 
1.215071e-004 
1.222083e-004 
1.229769e-004 
1.238254e-004 
1.246605e-004 
1.255197e-004 
1.264892e-004 
1.275072e-004 
1.285165e-004 
1.296223e-004 
1.308503e-004 
1.320961e-004 
1.333856e-004 
1.348325e-004 
1.363724e-004 
1.379268e-004 
1.396002e-004 
1.414415e-004 
1.433270e-004 
1.452604e-004 
1.473638e-004 
1.495846e-004 
1.518109e-004 
1.541289e-004 
1.565998e-004 
1.590955e-004 
1.615770e-004 
1.641548e-004 
1.667879e-004 
1.693450e-004 
1.718667e-004 
1.744128e-004 
1.768682e-004 
1.791626e-004 
1.813658e-004 
1.834559e-004 
1.853167e-004 
1.869474e-004 
1.883876e-004 
1.895703e-004 
1.904342e-004 
1.910041e-004 
1.912789e-004 
1.912136e-004 
1.907952e-004 
1.900345e-004 
1.889392e-004 
1.875126e-004 
1.857422e-004 
1.836459e-004 
1.812885e-004 
1.786772e-004 
1.757867e-004 
1.727054e-004 
1.695272e-004 
1.662066e-004 
1.627679e-004 
1.593823e-004 
1.560759e-004 
1.527750e-004 
1.496231e-004 
1.467741e-004 
1.441312e-004 
1.416987e-004 
1.396983e-004 
1.381287e-004 
1.368481e-004 
1.360003e-004 
1.357244e-004 
1.358450e-004 
1.363192e-004 
1.373413e-004 
1.388406e-004 
1.406101e-004 
1.427516e-004 
1.453427e-004 
1.481537e-004 
1.511050e-004 
1.543408e-004 
1.577531e-004 
1.611281e-004 
1.645410e-004 
1.680468e-004 
1.714395e-004 
1.746535e-004 
1.778218e-004 
1.808736e-004 
1.836477e-004 
1.862274e-004 
1.886933e-004 
1.909107e-004 
1.928449e-004 
1.946367e-004 
1.962704e-004 
1.976362e-004 
1.988134e-004 
1.999033e-004 
2.008208e-004 
2.015351e-004 
2.021700e-004 
2.027392e-004 
2.031480e-004 
2.034452e-004 
2.037251e-004 
2.039173e-004 
2.039721e-004 
2.039780e-004 
2.039544e-004 
2.037848e-004 
2.034657e-004 
2.030427e-004 
2.025543e-004 
1.000000e+000 
1.000000e+000 
1.162129e-004 
1.160612e-004 
1.159945e-004 
1.160405e-004 
1.161959e-004 
1.164138e-004 
1.166813e-004 
1.170677e-004 
1.175236e-004 
1.179859e-004 
1.185050e-004 
1.191239e-004 
1.197459e-004 
1.203611e-004 
1.210632e-004 
1.218273e-004 
1.225536e-004 
1.233168e-004 
1.241957e-004 
1.250914e-004 
1.259635e-004 
1.269515e-004 
1.280551e-004 
1.291433e-004 
1.302792e-004 
1.315991e-004 
1.329961e-004 
1.343834e-004 
1.359205e-004 
1.376561e-004 
1.394109e-004 
1.412130e-004 
1.432487e-004 
1.454252e-004 
1.475784e-004 
1.498678e-004 
1.524000e-004 
1.549556e-004 
1.574849e-004 
1.602180e-004 
1.630910e-004 
1.658516e-004 
1.686194e-004 
1.715696e-004 
1.744570e-004 
1.771333e-004 
1.798483e-004 
1.825968e-004 
1.850507e-004 
1.872705e-004 
1.895008e-004 
1.915145e-004 
1.930769e-004 
1.944466e-004 
1.957005e-004 
1.964876e-004 
1.968179e-004 
1.970014e-004 
1.968709e-004 
1.961583e-004 
1.951269e-004 
1.939369e-004 
1.922721e-004 
1.901279e-004 
1.878547e-004 
1.853610e-004 
1.824053e-004 
1.792529e-004 
1.761118e-004 
1.727353e-004 
1.691369e-004 
1.656609e-004 
1.622676e-004 
1.587763e-004 
1.554325e-004 
1.524254e-004 
1.495719e-004 
1.469007e-004 
1.446811e-004 
1.428710e-004 
1.413387e-004 
1.402573e-004 
1.397264e-004 
1.395900e-004 
1.398532e-004 
1.406509e-004 
1.419003e-004 
1.434844e-004 
1.454698e-004 
1.478525e-004 
1.504906e-004 
1.533502e-004 
1.564557e-004 
1.597093e-004 
1.630162e-004 
1.663808e-004 
1.697654e-004 
1.730744e-004 
1.762812e-004 
1.793863e-004 
1.823342e-004 
1.850842e-004 
1.876487e-004 
1.900180e-004 
1.921617e-004 
1.940890e-004 
1.958191e-004 
1.973447e-004 
1.986700e-004 
1.998225e-004 
2.008135e-004 
2.016482e-004 
2.023473e-004 
2.029310e-004 
2.034040e-004 
2.037808e-004 
2.040728e-004 
2.042889e-004 
2.044292e-004 
2.045025e-004 
2.044963e-004 
2.044094e-004 
2.042270e-004 
2.039745e-004 
2.036040e-004 
2.030507e-004 
1.000000e+000 
1.000000e+000 
1.155033e-004 
1.154202e-004 
1.153936e-004 
1.154404e-004 
1.156073e-004 
1.158886e-004 
1.161942e-004 
1.165626e-004 
1.170312e-004 
1.175455e-004 
1.180601e-004 
1.186454e-004 
1.192945e-004 
1.199376e-004 
1.205955e-004 
1.213354e-004 
1.221018e-004 
1.228591e-004 
1.236814e-004 
1.245897e-004 
1.255087e-004 
1.264676e-004 
1.275446e-004 
1.287004e-004 
1.298873e-004 
1.311867e-004 
1.326312e-004 
1.341474e-004 
1.357466e-004 
1.375166e-004 
1.394257e-004 
1.414132e-004 
1.435403e-004 
1.458524e-004 
1.482751e-004 
1.507897e-004 
1.534654e-004 
1.562869e-004 
1.591747e-004 
1.621444e-004 
1.652343e-004 
1.683861e-004 
1.715369e-004 
1.747083e-004 
1.779019e-004 
1.810441e-004 
1.840835e-004 
1.870351e-004 
1.898849e-004 
1.925513e-004 
1.949862e-004 
1.972183e-004 
1.992289e-004 
2.009158e-004 
2.022576e-004 
2.033227e-004 
2.040609e-004 
2.043575e-004 
2.042729e-004 
2.038940e-004 
2.031015e-004 
2.018355e-004 
2.002656e-004 
1.984153e-004 
1.961192e-004 
1.934685e-004 
1.906724e-004 
1.876191e-004 
1.842163e-004 
1.807255e-004 
1.772451e-004 
1.735727e-004 
1.698213e-004 
1.662886e-004 
1.628617e-004 
1.594193e-004 
1.562710e-004 
1.535349e-004 
1.509680e-004 
1.486774e-004 
1.469650e-004 
1.456750e-004 
1.446500e-004 
1.441705e-004 
1.442970e-004 
1.447379e-004 
1.455575e-004 
1.469782e-004 
1.487852e-004 
1.507905e-004 
1.531968e-004 
1.559909e-004 
1.588729e-004 
1.618671e-004 
1.651207e-004 
1.684210e-004 
1.715980e-004 
1.748064e-004 
1.780297e-004 
1.810321e-004 
1.838406e-004 
1.865921e-004 
1.891461e-004 
1.913896e-004 
1.934683e-004 
1.954147e-004 
1.970742e-004 
1.984862e-004 
1.997938e-004 
2.009306e-004 
2.018147e-004 
2.025761e-004 
2.032739e-004 
2.038037e-004 
2.041790e-004 
2.045322e-004 
2.048232e-004 
2.049736e-004 
2.050593e-004 
2.051485e-004 
2.051353e-004 
2.050120e-004 
2.048445e-004 
2.045986e-004 
2.041529e-004 
2.036277e-004 
1.000000e+000 
1.000000e+000 
1.146943e-004 
1.145981e-004 
1.146541e-004 
1.148012e-004 
1.149682e-004 
1.152407e-004 
1.156231e-004 
1.160294e-004 
1.164571e-004 
1.169985e-004 
1.175821e-004 
1.181357e-004 
1.187451e-004 
1.194534e-004 
1.201334e-004 
1.207983e-004 
1.215763e-004 
1.224135e-004 
1.231972e-004 
1.240513e-004 
1.250596e-004 
1.260785e-004 
1.270923e-004 
1.282886e-004 
1.296300e-004 
1.309576e-004 
1.323942e-004 
1.340884e-004 
1.358710e-004 
1.376722e-004 
1.397150e-004 
1.420060e-004 
1.443163e-004 
1.467362e-004 
1.494750e-004 
1.523575e-004 
1.552200e-004 
1.582948e-004 
1.616431e-004 
1.649704e-004 
1.682861e-004 
1.718506e-004 
1.755037e-004 
1.789783e-004 
1.824761e-004 
1.861274e-004 
1.896001e-004 
1.928092e-004 
1.960463e-004 
1.992052e-004 
2.019480e-004 
2.044327e-004 
2.068610e-004 
2.089216e-004 
2.104646e-004 
2.117969e-004 
2.128905e-004 
2.134054e-004 
2.134669e-004 
2.133305e-004 
2.127532e-004 
2.115806e-004 
2.101174e-004 
2.084055e-004 
2.061684e-004 
2.035265e-004 
2.007480e-004 
1.976763e-004 
1.942104e-004 
1.906321e-004 
1.870157e-004 
1.831851e-004 
1.792715e-004 
1.755008e-004 
1.717866e-004 
1.681025e-004 
1.646680e-004 
1.615339e-004 
1.586149e-004 
1.560250e-004 
1.538847e-004 
1.521344e-004 
1.507848e-004 
1.499363e-004 
1.495667e-004 
1.496317e-004 
1.501736e-004 
1.511757e-004 
1.525705e-004 
1.543538e-004 
1.564974e-004 
1.589155e-004 
1.615766e-004 
1.644546e-004 
1.674544e-004 
1.705202e-004 
1.736453e-004 
1.767556e-004 
1.797719e-004 
1.827001e-004 
1.855182e-004 
1.881462e-004 
1.905760e-004 
1.928406e-004 
1.948951e-004 
1.967061e-004 
1.983240e-004 
1.997659e-004 
2.009867e-004 
2.020150e-004 
2.029104e-004 
2.036571e-004 
2.042371e-004 
2.047168e-004 
2.051187e-004 
2.054094e-004 
2.056068e-004 
2.057702e-004 
2.058699e-004 
2.058856e-004 
2.058454e-004 
2.057637e-004 
2.055790e-004 
2.053173e-004 
2.049884e-004 
2.044978e-004 
1.000000e+000 
1.000000e+000 
1.137982e-004 
1.137847e-004 
1.138323e-004 
1.140202e-004 
1.142716e-004 
1.145611e-004 
1.149381e-004 
1.154065e-004 
1.158797e-004 
1.163868e-004 
1.169775e-004 
1.176026e-004 
1.182070e-004 
1.188645e-004 
1.195919e-004 
1.203163e-004 
1.210452e-004 
1.218664e-004 
1.227471e-004 
1.236322e-004 
1.245901e-004 
1.256793e-004 
1.268300e-004 
1.280374e-004 
1.293974e-004 
1.309128e-004 
1.325092e-004 
1.342382e-004 
1.361807e-004 
1.382839e-004 
1.404999e-004 
1.429172e-004 
1.455689e-004 
1.483646e-004 
1.512970e-004 
1.544613e-004 
1.578259e-004 
1.612835e-004 
1.648712e-004 
1.686613e-004 
1.725512e-004 
1.764432e-004 
1.804196e-004 
1.844999e-004 
1.885162e-004 
1.924218e-004 
1.963354e-004 
2.001868e-004 
2.037790e-004 
2.071664e-004 
2.104608e-004 
2.134767e-004 
2.160708e-004 
2.184184e-004 
2.205392e-004 
2.221654e-004 
2.233138e-004 
2.242176e-004 
2.247272e-004 
2.246161e-004 
2.241126e-004 
2.233603e-004 
2.220617e-004 
2.202001e-004 
2.181266e-004 
2.157570e-004 
2.128144e-004 
2.095712e-004 
2.062826e-004 
2.026523e-004 
1.986503e-004 
1.947086e-004 
1.907955e-004 
1.866187e-004 
1.824771e-004 
1.786739e-004 
1.749182e-004 
1.711799e-004 
1.678988e-004 
1.650369e-004 
1.623015e-004 
1.599715e-004 
1.582983e-004 
1.569739e-004 
1.559542e-004 
1.555896e-004 
1.557761e-004 
1.562195e-004 
1.571207e-004 
1.586124e-004 
1.603745e-004 
1.623372e-004 
1.647249e-004 
1.673872e-004 
1.700596e-004 
1.728687e-004 
1.758755e-004 
1.788126e-004 
1.816195e-004 
1.844578e-004 
1.872176e-004 
1.897117e-004 
1.920475e-004 
1.942982e-004 
1.962949e-004 
1.980128e-004 
1.996042e-004 
2.010337e-004 
2.021844e-004 
2.031558e-004 
2.040433e-004 
2.047537e-004 
2.052666e-004 
2.057168e-004 
2.061074e-004 
2.063510e-004 
2.065041e-004 
2.066615e-004 
2.067499e-004 
2.067279e-004 
2.066793e-004 
2.066264e-004 
2.064571e-004 
2.061647e-004 
2.058096e-004 
2.054081e-004 
1.000000e+000 
1.000000e+000 
1.127398e-004 
1.128329e-004 
1.129653e-004 
1.131591e-004 
1.134700e-004 
1.138426e-004 
1.142105e-004 
1.146739e-004 
1.152282e-004 
1.157647e-004 
1.163096e-004 
1.169691e-004 
1.176477e-004 
1.182768e-004 
1.189800e-004 
1.197894e-004 
1.205584e-004 
1.213348e-004 
1.222680e-004 
1.232711e-004 
1.242393e-004 
1.253426e-004 
1.266497e-004 
1.279872e-004 
1.293809e-004 
1.310429e-004 
1.328909e-004 
1.347674e-004 
1.368494e-004 
1.392644e-004 
1.417976e-004 
1.444200e-004 
1.473813e-004 
1.506262e-004 
1.539146e-004 
1.573914e-004 
1.612359e-004 
1.652082e-004 
1.691806e-004 
1.734099e-004 
1.778800e-004 
1.822771e-004 
1.866700e-004 
1.912812e-004 
1.958774e-004 
2.002392e-004 
2.045969e-004 
2.089940e-004 
2.130914e-004 
2.168843e-004 
2.206196e-004 
2.241185e-004 
2.271228e-004 
2.298271e-004 
2.323309e-004 
2.343393e-004 
2.358126e-004 
2.369958e-004 
2.377853e-004 
2.379596e-004 
2.376833e-004 
2.370824e-004 
2.359547e-004 
2.342825e-004 
2.322796e-004 
2.299078e-004 
2.270455e-004 
2.238406e-004 
2.204044e-004 
2.166478e-004 
2.126170e-004 
2.084670e-004 
2.041995e-004 
1.998188e-004 
1.954525e-004 
1.911557e-004 
1.869413e-004 
1.829122e-004 
1.791277e-004 
1.755935e-004 
1.724077e-004 
1.696323e-004 
1.672292e-004 
1.652634e-004 
1.638271e-004 
1.628450e-004 
1.622914e-004 
1.622769e-004 
1.627508e-004 
1.635772e-004 
1.648189e-004 
1.665017e-004 
1.684435e-004 
1.705914e-004 
1.730307e-004 
1.756394e-004 
1.782545e-004 
1.809392e-004 
1.836970e-004 
1.863440e-004 
1.888500e-004 
1.913116e-004 
1.936351e-004 
1.957026e-004 
1.976044e-004 
1.993829e-004 
2.009139e-004 
2.022029e-004 
2.033723e-004 
2.043851e-004 
2.051622e-004 
2.058037e-004 
2.063794e-004 
2.068054e-004 
2.070837e-004 
2.073349e-004 
2.075391e-004 
2.076218e-004 
2.076518e-004 
2.076971e-004 
2.076644e-004 
2.075271e-004 
2.073741e-004 
2.072021e-004 
2.068969e-004 
2.064489e-004 
1.000000e+000 
1.000000e+000 
1.116491e-004 
1.118010e-004 
1.120234e-004 
1.122771e-004 
1.125848e-004 
1.130084e-004 
1.134669e-004 
1.139266e-004 
1.144566e-004 
1.150729e-004 