# vtk DataFile Version 2.0
2D-ADE data file 
ASCII
DATASET RECTILINEAR_GRID
DIMENSIONS 128 128 1
X_COORDINATES 128 int
0 1 2 3 4 5 6 7 8 9 10 11 12 13 14 15 16 17 18 19 20 21 22 23 24 25 26 27 28 29 30 31 32 33 34 35 36 37 38 39 40 41 42 43 44 45 46 47 48 49 50 51 52 53 54 55 56 57 58 59 60 61 62 63 64 65 66 67 68 69 70 71 72 73 74 75 76 77 78 79 80 81 82 83 84 85 86 87 88 89 90 91 92 93 94 95 96 97 98 99 100 101 102 103 104 105 106 107 108 109 110 111 112 113 114 115 116 117 118 119 120 121 122 123 124 125 126 127 
Y_COORDINATES 128 int
0 1 2 3 4 5 6 7 8 9 10 11 12 13 14 15 16 17 18 19 20 21 22 23 24 25 26 27 28 29 30 31 32 33 34 35 36 37 38 39 40 41 42 43 44 45 46 47 48 49 50 51 52 53 54 55 56 57 58 59 60 61 62 63 64 65 66 67 68 69 70 71 72 73 74 75 76 77 78 79 80 81 82 83 84 85 86 87 88 89 90 91 92 93 94 95 96 97 98 99 100 101 102 103 104 105 106 107 108 109 110 111 112 113 114 115 116 117 118 119 120 121 122 123 124 125 126 127 
Z_COORDINATES 1 int
0
POINT_DATA 16384 
SCALARS density double 1
LOOKUP_TABLE default
1.000000e+000 
1.000000e+000 
1.000000e+000 
1.000000e+000 
1.000000e+000 
1.000000e+000 
1.000000e+000 
1.000000e+000 
1.000000e+000 
1.000000e+000 
1.000000e+000 
1.000000e+000 
1.000000e+000 
1.000000e+000 
1.000000e+000 
1.000000e+000 
1.000000e+000 
1.000000e+000 
1.000000e+000 
1.000000e+000 
1.000000e+000 
1.000000e+000 
1.000000e+000 
1.000000e+000 
1.000000e+000 
1.000000e+000 
1.000000e+000 
1.000000e+000 
1.000000e+000 
1.000000e+000 
1.000000e+000 
1.000000e+000 
1.000000e+000 
1.000000e+000 
1.000000e+000 
1.000000e+000 
1.000000e+000 
1.000000e+000 
1.000000e+000 
1.000000e+000 
1.000000e+000 
1.000000e+000 
1.000000e+000 
1.000000e+000 
1.000000e+000 
1.000000e+000 
1.000000e+000 
1.000000e+000 
1.000000e+000 
1.000000e+000 
1.000000e+000 
1.000000e+000 
1.000000e+000 
1.000000e+000 
1.000000e+000 
1.000000e+000 
1.000000e+000 
1.000000e+000 
1.000000e+000 
1.000000e+000 
1.000000e+000 
1.000000e+000 
1.000000e+000 
1.000000e+000 
1.000000e+000 
1.000000e+000 
1.000000e+000 
1.000000e+000 
1.000000e+000 
1.000000e+000 
1.000000e+000 
1.000000e+000 
1.000000e+000 
1.000000e+000 
1.000000e+000 
1.000000e+000 
1.000000e+000 
1.000000e+000 
1.000000e+000 
1.000000e+000 
1.000000e+000 
1.000000e+000 
1.000000e+000 
1.000000e+000 
1.000000e+000 
1.000000e+000 
1.000000e+000 
1.000000e+000 
1.000000e+000 
1.000000e+000 
1.000000e+000 
1.000000e+000 
1.000000e+000 
1.000000e+000 
1.000000e+000 
1.000000e+000 
1.000000e+000 
1.000000e+000 
1.000000e+000 
1.000000e+000 
1.000000e+000 
1.000000e+000 
1.000000e+000 
1.000000e+000 
1.000000e+000 
1.000000e+000 
1.000000e+000 
1.000000e+000 
1.000000e+000 
1.000000e+000 
1.000000e+000 
1.000000e+000 
1.000000e+000 
1.000000e+000 
1.000000e+000 
1.000000e+000 
1.000000e+000 
1.000000e+000 
1.000000e+000 
1.000000e+000 
1.000000e+000 
1.000000e+000 
1.000000e+000 
1.000000e+000 
1.000000e+000 
1.000000e+000 
1.000000e+000 
1.000000e+000 
1.000000e+000 
1.171450e-004 
1.170491e-004 
1.169130e-004 
1.168336e-004 
1.167878e-004 
1.169406e-004 
1.171800e-004 
1.175402e-004 
1.179644e-004 
1.185570e-004 
1.192045e-004 
1.199167e-004 
1.207065e-004 
1.216055e-004 
1.225157e-004 
1.234693e-004 
1.245167e-004 
1.256177e-004 
1.267160e-004 
1.278825e-004 
1.291512e-004 
1.304316e-004 
1.317361e-004 
1.331512e-004 
1.346514e-004 
1.361424e-004 
1.377125e-004 
1.394129e-004 
1.411528e-004 
1.428913e-004 
1.447624e-004 
1.467325e-004 
1.486864e-004 
1.506737e-004 
1.528081e-004 
1.549569e-004 
1.570510e-004 
1.592184e-004 
1.614769e-004 
1.636364e-004 
1.657365e-004 
1.679125e-004 
1.700464e-004 
1.719829e-004 
1.738768e-004 
1.757708e-004 
1.774470e-004 
1.788821e-004 
1.802730e-004 
1.815027e-004 
1.823679e-004 
1.830110e-004 
1.835462e-004 
1.837259e-004 
1.834966e-004 
1.830920e-004 
1.824492e-004 
1.813256e-004 
1.798755e-004 
1.782729e-004 
1.763005e-004 
1.738844e-004 
1.713051e-004 
1.685566e-004 
1.654176e-004 
1.620470e-004 
1.586745e-004 
1.551324e-004 
1.513653e-004 
1.476636e-004 
1.440728e-004 
1.404130e-004 
1.368405e-004 
1.335853e-004 
1.305267e-004 
1.276219e-004 
1.251175e-004 
1.230599e-004 
1.212975e-004 
1.199405e-004 
1.191505e-004 
1.188191e-004 
1.188784e-004 
1.194803e-004 
1.206188e-004 
1.221488e-004 
1.240918e-004 
1.265246e-004 
1.293181e-004 
1.323842e-004 
1.357659e-004 
1.394344e-004 
1.432365e-004 
1.471612e-004 
1.512131e-004 
1.553079e-004 
1.593383e-004 
1.633444e-004 
1.672776e-004 
1.710683e-004 
1.746702e-004 
1.781409e-004 
1.813968e-004 
1.844290e-004 
1.872243e-004 
1.898414e-004 
1.921847e-004 
1.943165e-004 
1.962138e-004 
1.979408e-004 
1.993993e-004 
2.007090e-004 
2.018022e-004 
2.027664e-004 
2.034898e-004 
2.041322e-004 
2.045650e-004 
2.049151e-004 
2.050393e-004 
2.051315e-004 
2.050184e-004 
2.048664e-004 
2.045241e-004 
2.042219e-004 
2.039475e-004 
2.038219e-004 
1.000000e+000 
1.000000e+000 
1.172305e-004 
1.171314e-004 
1.170202e-004 
1.170429e-004 
1.170123e-004 
1.171796e-004 
1.173861e-004 
1.177771e-004 
1.181616e-004 
1.187210e-004 
1.193313e-004 
1.200355e-004 
1.207637e-004 
1.216190e-004 
1.225051e-004 
1.234278e-004 
1.244130e-004 
1.254809e-004 
1.265628e-004 
1.276808e-004 
1.288960e-004 
1.301546e-004 
1.314355e-004 
1.327869e-004 
1.342440e-004 
1.357147e-004 
1.372418e-004 
1.388679e-004 
1.405744e-004 
1.422840e-004 
1.440884e-004 
1.459834e-004 
1.479142e-004 
1.498572e-004 
1.519062e-004 
1.539946e-004 
1.560773e-004 
1.581802e-004 
1.603501e-004 
1.624839e-004 
1.645793e-004 
1.666712e-004 
1.687432e-004 
1.707034e-004 
1.725852e-004 
1.743916e-004 
1.760719e-004 
1.775737e-004 
1.789304e-004 
1.801102e-004 
1.810721e-004 
1.817911e-004 
1.822774e-004 
1.825017e-004 
1.824467e-004 
1.820850e-004 
1.814262e-004 
1.804758e-004 
1.792133e-004 
1.776113e-004 
1.757264e-004 
1.735805e-004 
1.711252e-004 
1.683858e-004 
1.654740e-004 
1.623702e-004 
1.590326e-004 
1.555887e-004 
1.521351e-004 
1.485895e-004 
1.449999e-004 
1.415590e-004 
1.382558e-004 
1.350149e-004 
1.320106e-004 
1.293728e-004 
1.269762e-004 
1.248571e-004 
1.232273e-004 
1.220489e-004 
1.211893e-004 
1.208129e-004 
1.210110e-004 
1.216096e-004 
1.225847e-004 
1.241170e-004 
1.260984e-004 
1.283638e-004 
1.310012e-004 
1.340731e-004 
1.373448e-004 
1.407824e-004 
1.444815e-004 
1.483561e-004 
1.521929e-004 
1.560961e-004 
1.600619e-004 
1.639467e-004 
1.676515e-004 
1.713391e-004 
1.748783e-004 
1.781940e-004 
1.812856e-004 
1.842941e-004 
1.870075e-004 
1.894948e-004 
1.917634e-004 
1.939132e-004 
1.957134e-004 
1.973790e-004 
1.988293e-004 
2.001657e-004 
2.011653e-004 
2.021482e-004 
2.028887e-004 
2.035581e-004 
2.039228e-004 
2.043639e-004 
2.045097e-004 
2.046502e-004 
2.045238e-004 
2.045258e-004 
2.042344e-004 
2.040264e-004 
2.038264e-004 
2.037322e-004 
1.000000e+000 
1.000000e+000 
1.173561e-004 
1.172568e-004 
1.171361e-004 
1.170969e-004 
1.171731e-004 
1.173256e-004 
1.175267e-004 
1.178718e-004 
1.183135e-004 
1.188076e-004 
1.193720e-004 
1.200677e-004 
1.208025e-004 
1.215612e-004 
1.224131e-004 
1.233542e-004 
1.242865e-004 
1.252602e-004 
1.263481e-004 
1.274721e-004 
1.285818e-004 
1.297866e-004 
1.311005e-004 
1.324044e-004 
1.337377e-004 
1.352149e-004 
1.367568e-004 
1.382717e-004 
1.398875e-004 
1.416480e-004 
1.434043e-004 
1.451594e-004 
1.470716e-004 
1.490625e-004 
1.509905e-004 
1.529752e-004 
1.551097e-004 
1.572070e-004 
1.592247e-004 
1.613456e-004 
1.635193e-004 
1.655366e-004 
1.675003e-004 
1.695460e-004 
1.714760e-004 
1.731776e-004 
1.748569e-004 
1.764974e-004 
1.778461e-004 
1.789653e-004 
1.800424e-004 
1.808870e-004 
1.813383e-004 
1.816056e-004 
1.817295e-004 
1.814443e-004 
1.807869e-004 
1.799827e-004 
1.788902e-004 
1.773350e-004 
1.755316e-004 
1.735758e-004 
1.712444e-004 
1.685703e-004 
1.658033e-004 
1.628664e-004 
1.596231e-004 
1.562825e-004 
1.529767e-004 
1.495526e-004 
1.460573e-004 
1.427238e-004 
1.395265e-004 
1.363812e-004 
1.334624e-004 
1.308872e-004 
1.285594e-004 
1.265183e-004 
1.249225e-004 
1.237532e-004 
1.229475e-004 
1.225997e-004 
1.227579e-004 
1.233438e-004 
1.243477e-004 
1.258228e-004 
1.277203e-004 
1.299713e-004 
1.325742e-004 
1.355126e-004 
1.387055e-004 
1.421077e-004 
1.456933e-004 
1.494125e-004 
1.531958e-004 
1.570125e-004 
1.608209e-004 
1.645807e-004 
1.682440e-004 
1.717929e-004 
1.751930e-004 
1.784310e-004 
1.814742e-004 
1.843254e-004 
1.869657e-004 
1.894050e-004 
1.916186e-004 
1.936341e-004 
1.954389e-004 
1.970568e-004 
1.984655e-004 
1.997142e-004 
2.007795e-004 
2.016942e-004 
2.024352e-004 
2.030632e-004 
2.035317e-004 
2.038854e-004 
2.041020e-004 
2.042374e-004 
2.042349e-004 
2.041593e-004 
2.040248e-004 
2.038332e-004 
2.036122e-004 
2.034378e-004 
1.000000e+000 
1.000000e+000 
1.174376e-004 
1.172375e-004 
1.171681e-004 
1.171304e-004 
1.171986e-004 
1.173422e-004 
1.175886e-004 
1.178937e-004 
1.183249e-004 
1.188213e-004 
1.193820e-004 
1.200132e-004 
1.207357e-004 
1.214931e-004 
1.222970e-004 
1.231746e-004 
1.241053e-004 
1.250595e-004 
1.260692e-004 
1.271518e-004 
1.282657e-004 
1.294192e-004 
1.306470e-004 
1.319413e-004 
1.332657e-004 
1.346581e-004 
1.361330e-004 
1.376642e-004 
1.392371e-004 
1.408967e-004 
1.426288e-004 
1.444058e-004 
1.462335e-004 
1.481430e-004 
1.500998e-004 
1.520849e-004 
1.541105e-004 
1.561883e-004 
1.582746e-004 
1.603546e-004 
1.624397e-004 
1.645268e-004 
1.665620e-004 
1.685311e-004 
1.704512e-004 
1.723015e-004 
1.740108e-004 
1.755815e-004 
1.770404e-004 
1.783304e-004 
1.793769e-004 
1.802270e-004 
1.808959e-004 
1.812780e-004 
1.813447e-004 
1.811938e-004 
1.807821e-004 
1.799903e-004 
1.788932e-004 
1.775883e-004 
1.759499e-004 
1.739344e-004 
1.717198e-004 
1.693164e-004 
1.665707e-004 
1.635974e-004 
1.605827e-004 
1.574074e-004 
1.540170e-004 
1.506641e-004 
1.474059e-004 
1.440709e-004 
1.407958e-004 
1.378211e-004 
1.350242e-004 
1.323349e-004 
1.300254e-004 
1.281537e-004 
1.265214e-004 
1.252440e-004 
1.245414e-004 
1.242569e-004 
1.242855e-004 
1.248453e-004 
1.259474e-004 
1.273557e-004 
1.291324e-004 
1.314206e-004 
1.340359e-004 
1.368346e-004 
1.399675e-004 
1.433971e-004 
1.468964e-004 
1.504767e-004 
1.542446e-004 
1.580228e-004 
1.616917e-004 
1.653531e-004 
1.690012e-004 
1.724431e-004 
1.757111e-004 
1.788901e-004 
1.818910e-004 
1.846048e-004 
1.871615e-004 
1.895603e-004 
1.917094e-004 
1.936033e-004 
1.953831e-004 
1.969598e-004 
1.983087e-004 
1.994784e-004 
2.005663e-004 
2.014338e-004 
2.021492e-004 
2.027448e-004 
2.032704e-004 
2.035788e-004 
2.038212e-004 
2.039654e-004 
2.040439e-004 
2.039234e-004 
2.038229e-004 
2.036614e-004 
2.034469e-004 
2.031122e-004 
1.000000e+000 
1.000000e+000 
1.174865e-004 
1.172489e-004 
1.171018e-004 
1.170858e-004 
1.171369e-004 
1.172816e-004 
1.175553e-004 
1.178713e-004 
1.182515e-004 
1.187496e-004 
1.193327e-004 
1.199219e-004 
1.205890e-004 
1.213630e-004 
1.221530e-004 
1.229494e-004 
1.238520e-004 
1.248229e-004 
1.257680e-004 
1.267690e-004 
1.278927e-004 
1.290317e-004 
1.301579e-004 
1.314095e-004 
1.327604e-004 
1.340863e-004 
1.354634e-004 
1.370060e-004 
1.385839e-004 
1.401378e-004 
1.418225e-004 
1.436465e-004 
1.454330e-004 
1.472447e-004 
1.492287e-004 
1.512584e-004 
1.532098e-004 
1.552537e-004 
1.574278e-004 
1.595228e-004 
1.615492e-004 
1.636947e-004 
1.658374e-004 
1.677987e-004 
1.697282e-004 
1.717107e-004 
1.735104e-004 
1.750878e-004 
1.766425e-004 
1.780879e-004 
1.792023e-004 
1.801099e-004 
1.809300e-004 
1.814468e-004 
1.815816e-004 
1.815391e-004 
1.812792e-004 
1.805935e-004 
1.795830e-004 
1.783972e-004 
1.768777e-004 
1.749572e-004 
1.728306e-004 
1.705136e-004 
1.678621e-004 
1.649755e-004 
1.620081e-004 
1.588841e-004 
1.555832e-004 
1.522746e-004 
1.490071e-004 
1.457239e-004 
1.425187e-004 
1.395110e-004 
1.366881e-004 
1.340709e-004 
1.317636e-004 
1.298021e-004 
1.281858e-004 
1.269646e-004 
1.261756e-004 
1.258195e-004 
1.259120e-004 
1.264533e-004 
1.274289e-004 
1.288407e-004 
1.306672e-004 
1.328508e-004 
1.353791e-004 
1.382338e-004 
1.413358e-004 
1.446281e-004 
1.481132e-004 
1.517249e-004 
1.553745e-004 
1.590486e-004 
1.627394e-004 
1.663507e-004 
1.698449e-004 
1.732414e-004 
1.765058e-004 
1.795602e-004 
1.824349e-004 
1.851426e-004 
1.876376e-004 
1.898928e-004 
1.919771e-004 
1.938692e-004 
1.955427e-004 
1.970167e-004 
1.983576e-004 
1.995084e-004 
2.004867e-004 
2.013256e-004 
2.020629e-004 
2.026249e-004 
2.030793e-004 
2.034352e-004 
2.037007e-004 
2.038095e-004 
2.038694e-004 
2.038513e-004 
2.037432e-004 
2.035086e-004 
2.031721e-004 
2.028162e-004 
1.000000e+000 
1.000000e+000 
1.173301e-004 
1.170780e-004 
1.169475e-004 
1.169478e-004 
1.170122e-004 
1.171588e-004 
1.173935e-004 
1.177437e-004 
1.181486e-004 
1.186112e-004 
1.191606e-004 
1.197859e-004 
1.204360e-004 
1.211396e-004 
1.219199e-004 
1.227376e-004 
1.235714e-004 
1.244713e-004 
1.254364e-004 
1.264198e-004 
1.274393e-004 
1.285444e-004 
1.297034e-004 
1.308836e-004 
1.321353e-004 
1.334834e-004 
1.348727e-004 
1.363018e-004 
1.378346e-004 
1.394552e-004 
1.411034e-004 
1.428167e-004 
1.446467e-004 
1.465323e-004 
1.484327e-004 
1.504192e-004 
1.525017e-004 
1.545841e-004 
1.566703e-004 
1.588429e-004 
1.610438e-004 
1.631722e-004 
1.652940e-004 
1.674593e-004 
1.695359e-004 
1.714702e-004 
1.733789e-004 
1.752263e-004 
1.768434e-004 
1.782762e-004 
1.796369e-004 
1.807756e-004 
1.815730e-004 
1.821846e-004 
1.826305e-004 
1.826899e-004 
1.823900e-004 
1.819245e-004 
1.811637e-004 
1.799393e-004 
1.784530e-004 
1.768068e-004 
1.747656e-004 
1.723506e-004 
1.698409e-004 
1.671532e-004 
1.641024e-004 
1.609318e-004 
1.578177e-004 
1.545372e-004 
1.511165e-004 
1.478847e-004 
1.447935e-004 
1.416591e-004 
1.387338e-004 
1.362115e-004 
1.338765e-004 
1.317451e-004 
1.301218e-004 
1.289463e-004 
1.280267e-004 
1.275654e-004 
1.276990e-004 
1.281985e-004 
1.290392e-004 
1.304343e-004 
1.322799e-004 
1.343707e-004 
1.368248e-004 
1.397018e-004 
1.427713e-004 
1.459747e-004 
1.494392e-004 
1.530536e-004 
1.566310e-004 
1.602424e-004 
1.639209e-004 
1.674892e-004 
1.708952e-004 
1.742450e-004 
1.774696e-004 
1.804443e-004 
1.832323e-004 
1.858931e-004 
1.883161e-004 
1.904825e-004 
1.924914e-004 
1.943331e-004 
1.959225e-004 
1.973259e-004 
1.986079e-004 
1.997164e-004 
2.006235e-004 
2.014260e-004 
2.021257e-004 
2.026706e-004 
2.030807e-004 
2.034370e-004 
2.036877e-004 
2.038143e-004 
2.038514e-004 
2.038400e-004 
2.036841e-004 
2.034654e-004 
2.031756e-004 
2.027167e-004 
1.000000e+000 
1.000000e+000 
1.170915e-004 
1.168987e-004 
1.167357e-004 
1.166827e-004 
1.167740e-004 
1.169699e-004 
1.171904e-004 
1.175234e-004 
1.179597e-004 
1.184304e-004 
1.189385e-004 
1.195617e-004 
1.202303e-004 
1.208935e-004 
1.216264e-004 
1.224533e-004 
1.232697e-004 
1.240983e-004 
1.250366e-004 
1.260260e-004 
1.269878e-004 
1.280267e-004 
1.291889e-004 
1.303534e-004 
1.315287e-004 
1.328491e-004 
1.342595e-004 
1.356478e-004 
1.371248e-004 
1.387693e-004 
1.404386e-004 
1.421088e-004 
1.439403e-004 
1.458924e-004 
1.478115e-004 
1.497923e-004 
1.519478e-004 
1.541223e-004 
1.562443e-004 
1.584792e-004 
1.608116e-004 
1.630494e-004 
1.652495e-004 
1.675447e-004 
1.697853e-004 
1.718497e-004 
1.738845e-004 
1.759003e-004 
1.776947e-004 
1.792782e-004 
1.807868e-004 
1.821004e-004 
1.830802e-004 
1.838405e-004 
1.844183e-004 
1.846476e-004 
1.845199e-004 
1.841582e-004 
1.834984e-004 
1.824408e-004 
1.810759e-004 
1.794591e-004 
1.775087e-004 
1.752385e-004 
1.727473e-004 
1.700350e-004 
1.670886e-004 
1.639828e-004 
1.607725e-004 
1.574763e-004 
1.541491e-004 
1.508445e-004 
1.476067e-004 
1.445085e-004 
1.415914e-004 
1.388749e-004 
1.364459e-004 
1.343692e-004 
1.326176e-004 
1.312347e-004 
1.303233e-004 
1.298511e-004 
1.297669e-004 
1.301649e-004 
1.310640e-004 
1.323406e-004 
1.340003e-004 
1.361200e-004 
1.385860e-004 
1.412869e-004 
1.442908e-004 
1.475716e-004 
1.509543e-004 
1.544256e-004 
1.580418e-004 
1.616748e-004 
1.652087e-004 
1.687159e-004 
1.721773e-004 
1.754492e-004 
1.785324e-004 
1.815092e-004 
1.842910e-004 
1.868062e-004 
1.891386e-004 
1.913185e-004 
1.932422e-004 
1.949383e-004 
1.964970e-004 
1.978863e-004 
1.990419e-004 
2.000608e-004 
2.009780e-004 
2.017328e-004 
2.023213e-004 
2.028529e-004 
2.032870e-004 
2.035821e-004 
2.037766e-004 
2.039426e-004 
2.039837e-004 
2.039268e-004 
2.037879e-004 
2.035523e-004 
2.031176e-004 
2.026271e-004 
1.000000e+000 
1.000000e+000 
1.167137e-004 
1.164735e-004 
1.163920e-004 
1.163943e-004 
1.164583e-004 
1.166466e-004 
1.169262e-004 
1.172567e-004 
1.176577e-004 
1.181637e-004 
1.187047e-004 
1.192691e-004 
1.199128e-004 
1.206246e-004 
1.213300e-004 
1.220697e-004 
1.228981e-004 
1.237556e-004 
1.246028e-004 
1.255273e-004 
1.265407e-004 
1.275567e-004 
1.286008e-004 
1.297697e-004 
1.310080e-004 
1.322462e-004 
1.335772e-004 
1.350539e-004 
1.365643e-004 
1.381027e-004 
1.397963e-004 
1.416114e-004 
1.434255e-004 
1.453212e-004 
1.473972e-004 
1.495248e-004 
1.516353e-004 
1.538811e-004 
1.562628e-004 
1.585965e-004 
1.609225e-004 
1.633936e-004 
1.658737e-004 
1.682094e-004 
1.705575e-004 
1.729738e-004 
1.752154e-004 
1.772571e-004 
1.793057e-004 
1.812477e-004 
1.828433e-004 
1.842417e-004 
1.855754e-004 
1.865771e-004 
1.871556e-004 
1.875755e-004 
1.877824e-004 
1.874859e-004 
1.868296e-004 
1.860360e-004 
1.848594e-004 
1.831748e-004 
1.812989e-004 
1.792560e-004 
1.767562e-004 
1.739489e-004 
1.711284e-004 
1.680994e-004 
1.647418e-004 
1.613998e-004 
1.581537e-004 
1.547480e-004 
1.513371e-004 
1.482283e-004 
1.452662e-004 
1.423493e-004 
1.397938e-004 
1.376737e-004 
1.357646e-004 
1.341917e-004 
1.331932e-004 
1.326135e-004 
1.323494e-004 
1.326206e-004 
1.334364e-004 
1.345820e-004 
1.361144e-004 
1.381566e-004 
1.405385e-004 
1.431422e-004 
1.460779e-004 
1.493006e-004 
1.526184e-004 
1.560372e-004 
1.596083e-004 
1.631894e-004 
1.666817e-004 
1.701491e-004 
1.735578e-004 
1.767800e-004 
1.798242e-004 
1.827423e-004 
1.854576e-004 
1.879206e-004 
1.901962e-004 
1.922941e-004 
1.941493e-004 
1.957880e-004 
1.972714e-004 
1.985765e-004 
1.996783e-004 
2.006378e-004 
2.014807e-004 
2.021767e-004 
2.027359e-004 
2.032148e-004 
2.036005e-004 
2.038742e-004 
2.040606e-004 
2.041941e-004 
2.042227e-004 
2.041427e-004 
2.039798e-004 
2.037531e-004 
2.033864e-004 
2.028261e-004 
1.000000e+000 
1.000000e+000 
1.162697e-004 
1.160547e-004 
1.159411e-004 
1.159753e-004 
1.160718e-004 
1.162534e-004 
1.165574e-004 
1.169281e-004 
1.173213e-004 
1.178087e-004 
1.183789e-004 
1.189546e-004 
1.195587e-004 
1.202574e-004 
1.209819e-004 
1.216925e-004 
1.224708e-004 
1.233290e-004 
1.241741e-004 
1.250442e-004 
1.260255e-004 
1.270557e-004 
1.280784e-004 
1.291994e-004 
1.304438e-004 
1.317075e-004 
1.330169e-004 
1.344860e-004 
1.360498e-004 
1.376302e-004 
1.393323e-004 
1.412047e-004 
1.431233e-004 
1.450924e-004 
1.472343e-004 
1.494957e-004 
1.517646e-004 
1.541278e-004 
1.566459e-004 
1.591901e-004 
1.617217e-004 
1.643510e-004 
1.670361e-004 
1.696453e-004 
1.722192e-004 
1.748171e-004 
1.773228e-004 
1.796660e-004 
1.819160e-004 
1.840501e-004 
1.859516e-004 
1.876194e-004 
1.890927e-004 
1.903037e-004 
1.911911e-004 
1.917794e-004 
1.920670e-004 
1.920087e-004 
1.915917e-004 
1.908264e-004 
1.897205e-004 
1.882777e-004 
1.864855e-004 
1.843619e-004 
1.819722e-004 
1.793241e-004 
1.763926e-004 
1.732666e-004 
1.700408e-004 
1.666704e-004 
1.631800e-004 
1.597421e-004 
1.563834e-004 
1.530308e-004 
1.498288e-004 
1.469323e-004 
1.442449e-004 
1.417716e-004 
1.397353e-004 
1.381349e-004 
1.368289e-004 
1.359619e-004 
1.356732e-004 
1.357872e-004 
1.362613e-004 
1.372897e-004 
1.388012e-004 
1.405884e-004 
1.427529e-004 
1.453717e-004 
1.482140e-004 
1.511996e-004 
1.544723e-004 
1.579229e-004 
1.613368e-004 
1.647888e-004 
1.683332e-004 
1.717628e-004 
1.750122e-004 
1.782137e-004 
1.812961e-004 
1.840978e-004 
1.867025e-004 
1.891903e-004 
1.914265e-004 
1.933769e-004 
1.951823e-004 
1.968269e-004 
1.982015e-004 
1.993857e-004 
2.004808e-004 
2.014019e-004 
2.021188e-004 
2.027554e-004 
2.033255e-004 
2.037346e-004 
2.040319e-004 
2.043115e-004 
2.045031e-004 
2.045573e-004 
2.045623e-004 
2.045376e-004 
2.043664e-004 
2.040451e-004 
2.036188e-004 
2.031265e-004 
1.000000e+000 
1.000000e+000 
1.156298e-004 
1.154713e-004 
1.154006e-004 
1.154448e-004 
1.156001e-004 
1.158196e-004 
1.160908e-004 
1.164824e-004 
1.169444e-004 
1.174139e-004 
1.179412e-004 
1.185686e-004 
1.191991e-004 
1.198233e-004 
1.205346e-004 
1.213076e-004 
1.220430e-004 
1.228159e-004 
1.237048e-004 
1.246107e-004 
1.254941e-004 
1.264947e-004 
1.276117e-004 
1.287148e-004 
1.298676e-004 
1.312062e-004 
1.326236e-004 
1.340339e-004 
1.355965e-004 
1.373599e-004 
1.391451e-004 
1.409806e-004 
1.430524e-004 
1.452675e-004 
1.474622e-004 
1.497962e-004 
1.523752e-004 
1.549799e-004 
1.575609e-004 
1.603475e-004 
1.632754e-004 
1.660922e-004 
1.689172e-004 
1.719248e-004 
1.748693e-004 
1.776021e-004 
1.803724e-004 
1.831742e-004 
1.856792e-004 
1.879472e-004 
1.902222e-004 
1.922766e-004 
1.938754e-004 
1.952767e-004 
1.965568e-004 
1.973648e-004 
1.977102e-004 
1.979028e-004 
1.977753e-004 
1.970596e-004 
1.960190e-004 
1.948137e-004 
1.931279e-004 
1.909570e-004 
1.886518e-004 
1.861213e-004 
1.831243e-004 
1.799267e-004 
1.767372e-004 
1.733096e-004 
1.696583e-004 
1.661282e-004 
1.626803e-004 
1.591350e-004 
1.557385e-004 
1.526807e-004 
1.497791e-004 
1.470639e-004 
1.448044e-004 
1.429591e-004 
1.413974e-004 
1.402926e-004 
1.397442e-004 
1.395968e-004 
1.398557e-004 
1.406553e-004 
1.419125e-004 
1.435106e-004 
1.455155e-004 
1.479220e-004 
1.505881e-004 
1.534794e-004 
1.566189e-004 
1.599083e-004 
1.632521e-004 
1.666541e-004 
1.700752e-004 
1.734199e-004 
1.766609e-004 
1.797980e-004 
1.827752e-004 
1.855520e-004 
1.881406e-004 
1.905308e-004 
1.926924e-004 
1.946351e-004 
1.963778e-004 
1.979134e-004 
1.992466e-004 
2.004051e-004 
2.014003e-004 
2.022379e-004 
2.029388e-004 
2.035233e-004 
2.039964e-004 
2.043730e-004 
2.046644e-004 
2.048798e-004 
2.050190e-004 
2.050914e-004 
2.050841e-004 
2.049957e-004 
2.048116e-004 
2.045572e-004 
2.041841e-004 
2.036267e-004 
1.000000e+000 
1.000000e+000 
1.149111e-004 
1.148220e-004 
1.147910e-004 
1.148361e-004 
1.150035e-004 
1.152872e-004 
1.155967e-004 
1.159709e-004 
1.164463e-004 
1.169682e-004 
1.174911e-004 
1.180853e-004 
1.187433e-004 
1.193951e-004 
1.200621e-004 
1.208113e-004 
1.215865e-004 
1.223531e-004 
1.231854e-004 
1.241041e-004 
1.250342e-004 
1.260057e-004 
1.270968e-004 
1.282680e-004 
1.294722e-004 
1.307916e-004 
1.322582e-004 
1.337988e-004 
1.354255e-004 
1.372260e-004 
1.391683e-004 
1.411921e-004 
1.433590e-004 
1.457141e-004 
1.481826e-004 
1.507462e-004 
1.534741e-004 
1.563501e-004 
1.592948e-004 
1.623237e-004 
1.654747e-004 
1.686884e-004 
1.719020e-004 
1.751368e-004 
1.783932e-004 
1.815971e-004 
1.846971e-004 
1.877072e-004 
1.906126e-004 
1.933315e-004 
1.958153e-004 
1.980920e-004 
2.001424e-004 
2.018640e-004 
2.032351e-004 
2.043236e-004 
2.050792e-004 
2.053870e-004 
2.053072e-004 
2.049268e-004 
2.041265e-004 
2.028463e-004 
2.012560e-004 
1.993797e-004 
1.970521e-004 
1.943644e-004 
1.915269e-004 
1.884280e-004 
1.849757e-004 
1.814327e-004 
1.778979e-004 
1.741694e-004 
1.703611e-004 
1.667717e-004 
1.632889e-004 
1.597922e-004 
1.565921e-004 
1.538077e-004 
1.511962e-004 
1.488657e-004 
1.471188e-004 
1.458000e-004 
1.447521e-004 
1.442562e-004 
1.443728e-004 
1.448100e-004 
1.456324e-004 
1.470620e-004 
1.488833e-004 
1.509079e-004 
1.533382e-004 
1.561598e-004 
1.590721e-004 
1.620991e-004 
1.653868e-004 
1.687215e-004 
1.719330e-004 
1.751753e-004 
1.784309e-004 
1.814636e-004 
1.843005e-004 
1.870777e-004 
1.896545e-004 
1.919179e-004 
1.940140e-004 
1.959747e-004 
1.976458e-004 
1.990673e-004 
2.003820e-004 
2.015238e-004 
2.024114e-004 
2.031750e-004 
2.038737e-004 
2.044036e-004 
2.047785e-004 
2.051308e-004 
2.054204e-004 
2.055696e-004 
2.056541e-004 
2.057418e-004 
2.057271e-004 
2.056026e-004 
2.054335e-004 
2.051852e-004 
2.047366e-004 
2.042083e-004 
1.000000e+000 
1.000000e+000 
1.140899e-004 
1.139879e-004 
1.140408e-004 
1.141865e-004 
1.143544e-004 
1.146302e-004 
1.150171e-004 
1.154295e-004 
1.158647e-004 
1.164145e-004 
1.170066e-004 
1.175692e-004 
1.181880e-004 
1.189054e-004 
1.195942e-004 
1.202684e-004 
1.210558e-004 
1.219022e-004 
1.226957e-004 
1.235608e-004 
1.245809e-004 
1.256126e-004 
1.266412e-004 
1.278544e-004 
1.292145e-004 
1.305633e-004 
1.320244e-004 
1.337458e-004 
1.355585e-004 
1.373934e-004 
1.394737e-004 
1.418053e-004 
1.441598e-004 
1.466278e-004 
1.494182e-004 
1.523554e-004 
1.552759e-004 
1.584119e-004 
1.618237e-004 
1.652167e-004 
1.685999e-004 
1.722332e-004 
1.759556e-004 
1.794996e-004 
1.830664e-004 
1.867855e-004 
1.903241e-004 
1.935969e-004 
1.968948e-004 
2.001107e-004 
2.029066e-004 
2.054398e-004 
2.079115e-004 
2.100100e-004 
2.115852e-004 
2.129436e-004 
2.140570e-004 
2.145852e-004 
2.146534e-004 
2.145171e-004 
2.139333e-004 
2.127477e-004 
2.112651e-004 
2.095278e-004 
2.072595e-004 
2.045809e-004 
2.017608e-004 
1.986428e-004 
1.951268e-004 
1.914951e-004 
1.878225e-004 
1.839337e-004 
1.799609e-004 
1.761304e-004 
1.723567e-004 
1.686145e-004 
1.651241e-004 
1.619365e-004 
1.589678e-004 
1.563326e-004 
1.541517e-004 
1.523661e-004 
1.509876e-004 
1.501161e-004 
1.497298e-004 
1.497847e-004 
1.503231e-004 
1.513275e-004 
1.527305e-004 
1.545277e-004 
1.566897e-004 
1.591301e-004 
1.618171e-004 
1.647237e-004 
1.677536e-004 
1.708506e-004 
1.740075e-004 
1.771490e-004 
1.801952e-004 
1.831521e-004 
1.859969e-004 
1.886491e-004 
1.911005e-004 
1.933842e-004 
1.954550e-004 
1.972794e-004 
1.989084e-004 
2.003588e-004 
2.015860e-004 
2.026187e-004 
2.035170e-004 
2.042651e-004 
2.048454e-004 
2.053246e-004 
2.057255e-004 
2.060147e-004 
2.062103e-004 
2.063721e-004 
2.064701e-004 
2.064841e-004 
2.064423e-004 
2.063591e-004 
2.061726e-004 
2.059091e-004 
2.055780e-004 
2.050843e-004 
1.000000e+000 
1.000000e+000 
1.131802e-004 
1.131614e-004 
1.132059e-004 
1.133932e-004 
1.136461e-004 
1.139393e-004 
1.143218e-004 
1.147970e-004 
1.152780e-004 
1.157941e-004 
1.163941e-004 
1.170284e-004 
1.176423e-004 
1.183095e-004 
1.190462e-004 
1.197798e-004 
1.205184e-004 
1.213496e-004 
1.222405e-004 
1.231369e-004 
1.241077e-004 
1.252111e-004 
1.263776e-004 
1.276036e-004 
1.289850e-004 
1.305241e-004 
1.321474e-004 
1.339073e-004 
1.358841e-004 
1.380252e-004 
1.402833e-004 
1.427470e-004 
1.454488e-004 
1.482984e-004 
1.512892e-004 
1.545154e-004 
1.579450e-004 
1.614708e-004 
1.651297e-004 
1.689930e-004 
1.729575e-004 
1.769255e-004 
1.809784e-004 
1.851348e-004 
1.892264e-004 
1.932061e-004 
1.971915e-004 
2.011118e-004 
2.047697e-004 
2.082190e-004 
2.115705e-004 
2.146388e-004 
2.172800e-004 
2.196687e-004 
2.218246e-004 
2.234796e-004 
2.246501e-004 
2.255693e-004 
2.260876e-004 
2.259782e-004 
2.254696e-004 
2.247056e-004 
2.233887e-004 
2.215024e-004 
2.193980e-004 
2.169921e-004 
2.140077e-004 
2.107179e-004 
2.073783e-004 
2.036934e-004 
1.996336e-004 
1.956318e-004 
1.916569e-004 
1.874172e-004 
1.832127e-004 
1.793473e-004 
1.755307e-004 
1.717339e-004 
1.683974e-004 
1.654838e-004 
1.627012e-004 
1.603292e-004 
1.586195e-004 
1.572644e-004 
1.562205e-004 
1.558383e-004 
1.560132e-004 
1.564515e-004 
1.573539e-004 
1.588521e-004 
1.606258e-004 
1.626048e-004 
1.650128e-004 
1.676981e-004 
1.703959e-004 
1.732323e-004 
1.762669e-004 
1.792316e-004 
1.820660e-004 
1.849306e-004 
1.877147e-004 
1.902313e-004 
1.925875e-004 
1.948560e-004 
1.968677e-004 
1.985985e-004 
2.002003e-004 
2.016375e-004 
2.027940e-004 
2.037694e-004 
2.046592e-004 
2.053704e-004 
2.058832e-004 
2.063326e-004 
2.067215e-004 
2.069631e-004 
2.071143e-004 
2.072697e-004 
2.073559e-004 
2.073321e-004 
2.072819e-004 
2.072272e-004 
2.070564e-004 
2.067623e-004 
2.064048e-004 
2.060008e-004 
1.000000e+000 
1.000000e+000 
1.121050e-004 
1.121931e-004 
1.123233e-004 
1.125176e-004 
1.128309e-004 
1.132075e-004 
1.135816e-004 
1.140529e-004 
1.146157e-004 
1.151613e-004 
1.157162e-004 
1.163860e-004 
1.170742e-004 
1.177132e-004 
1.184267e-004 
1.192459e-004 
1.200247e-004 
1.208119e-004 
1.217568e-004 
1.227721e-004 
1.237543e-004 
1.248739e-004 
1.261993e-004 
1.275573e-004 
1.289752e-004 
1.306650e-004 
1.325438e-004 
1.344552e-004 
1.365768e-004 
1.390355e-004 
1.416166e-004 
1.442917e-004 
1.473104e-004 
1.506168e-004 
1.539707e-004 
1.575175e-004 
1.614354e-004 
1.654839e-004 
1.695354e-004 
1.738461e-004 
1.783989e-004 
1.828794e-004 
1.873561e-004 
1.920506e-004 
1.967288e-004 
2.011706e-004 
2.056061e-004 
2.100776e-004 
2.142455e-004 
2.181048e-004 
2.219016e-004 
2.254566e-004 
2.285112e-004 
2.312599e-004 
2.338017e-004 
2.358413e-004 
2.373390e-004 
2.385398e-004 
2.393397e-004 
2.395174e-004 
2.392375e-004 
2.386261e-004 
2.374811e-004 
2.357850e-004 
2.337520e-004 
2.313441e-004 
2.284400e-004 
2.251884e-004 
2.217006e-004 
2.178882e-004 
2.137982e-004 
2.095862e-004 
2.052543e-004 
2.008078e-004 
1.963750e-004 
1.920117e-004 
1.877317e-004 
1.836387e-004 
1.797927e-004 
1.762001e-004 
1.729600e-004 
1.701350e-004 
1.676872e-004 
1.656824e-004 
1.642134e-004 
1.632046e-004 
1.626307e-004 
1.626025e-004 
1.630689e-004 
1.638934e-004 
1.651390e-004 
1.668308e-004 
1.687855e-004 
1.709501e-004 
1.734091e-004 
1.760396e-004 
1.786776e-004 
1.813862e-004 
1.841679e-004 
1.868378e-004 
1.893658e-004 
1.918479e-004 
1.941899e-004 
1.962736e-004 
1.981895e-004 
1.999798e-004 
2.015202e-004 
2.028165e-004 
2.039912e-004 
2.050074e-004 
2.057863e-004 
2.064285e-004 
2.070037e-004 
2.074284e-004 
2.077049e-004 
2.079539e-004 
2.081557e-004 
2.082362e-004 
2.082640e-004 
2.083073e-004 
2.082729e-004 
2.081339e-004 
2.079794e-004 
2.078060e-004 
2.074993e-004 
2.070493e-004 
1.000000e+000 
1.000000e+000 
1.109950e-004 
1.111434e-004 
1.113641e-004 
1.116185e-004 
1.119294e-004 
1.123585e-004 
1.128236e-004 
1.132915e-004 
1.138311e-004 
1.144575e-004 