# vtk DataFile Version 2.0
2D-ADE data file 
ASCII
DATASET RECTILINEAR_GRID
DIMENSIONS 128 128 1
X_COORDINATES 128 int
0 1 2 3 4 5 6 7 8 9 10 11 12 13 14 15 16 17 18 19 20 21 22 23 24 25 26 27 28 29 30 31 32 33 34 35 36 37 38 39 40 41 42 43 44 45 46 47 48 49 50 51 52 53 54 55 56 57 58 59 60 61 62 63 64 65 66 67 68 69 70 71 72 73 74 75 76 77 78 79 80 81 82 83 84 85 86 87 88 89 90 91 92 93 94 95 96 97 98 99 100 101 102 103 104 105 106 107 108 109 110 111 112 113 114 115 116 117 118 119 120 121 122 123 124 125 126 127 
Y_COORDINATES 128 int
0 1 2 3 4 5 6 7 8 9 10 11 12 13 14 15 16 17 18 19 20 21 22 23 24 25 26 27 28 29 30 31 32 33 34 35 36 37 38 39 40 41 42 43 44 45 46 47 48 49 50 51 52 53 54 55 56 57 58 59 60 61 62 63 64 65 66 67 68 69 70 71 72 73 74 75 76 77 78 79 80 81 82 83 84 85 86 87 88 89 90 91 92 93 94 95 96 97 98 99 100 101 102 103 104 105 106 107 108 109 110 111 112 113 114 115 116 117 118 119 120 121 122 123 124 125 126 127 
Z_COORDINATES 1 int
0
POINT_DATA 16384 
SCALARS density double 1
LOOKUP_TABLE default
1.000000e+000 
1.000000e+000 
1.000000e+000 
1.000000e+000 
1.000000e+000 
1.000000e+000 
1.000000e+000 
1.000000e+000 
1.000000e+000 
1.000000e+000 
1.000000e+000 
1.000000e+000 
1.000000e+000 
1.000000e+000 
1.000000e+000 
1.000000e+000 
1.000000e+000 
1.000000e+000 
1.000000e+000 
1.000000e+000 
1.000000e+000 
1.000000e+000 
1.000000e+000 
1.000000e+000 
1.000000e+000 
1.000000e+000 
1.000000e+000 
1.000000e+000 
1.000000e+000 
1.000000e+000 
1.000000e+000 
1.000000e+000 
1.000000e+000 
1.000000e+000 
1.000000e+000 
1.000000e+000 
1.000000e+000 
1.000000e+000 
1.000000e+000 
1.000000e+000 
1.000000e+000 
1.000000e+000 
1.000000e+000 
1.000000e+000 
1.000000e+000 
1.000000e+000 
1.000000e+000 
1.000000e+000 
1.000000e+000 
1.000000e+000 
1.000000e+000 
1.000000e+000 
1.000000e+000 
1.000000e+000 
1.000000e+000 
1.000000e+000 
1.000000e+000 
1.000000e+000 
1.000000e+000 
1.000000e+000 
1.000000e+000 
1.000000e+000 
1.000000e+000 
1.000000e+000 
1.000000e+000 
1.000000e+000 
1.000000e+000 
1.000000e+000 
1.000000e+000 
1.000000e+000 
1.000000e+000 
1.000000e+000 
1.000000e+000 
1.000000e+000 
1.000000e+000 
1.000000e+000 
1.000000e+000 
1.000000e+000 
1.000000e+000 
1.000000e+000 
1.000000e+000 
1.000000e+000 
1.000000e+000 
1.000000e+000 
1.000000e+000 
1.000000e+000 
1.000000e+000 
1.000000e+000 
1.000000e+000 
1.000000e+000 
1.000000e+000 
1.000000e+000 
1.000000e+000 
1.000000e+000 
1.000000e+000 
1.000000e+000 
1.000000e+000 
1.000000e+000 
1.000000e+000 
1.000000e+000 
1.000000e+000 
1.000000e+000 
1.000000e+000 
1.000000e+000 
1.000000e+000 
1.000000e+000 
1.000000e+000 
1.000000e+000 
1.000000e+000 
1.000000e+000 
1.000000e+000 
1.000000e+000 
1.000000e+000 
1.000000e+000 
1.000000e+000 
1.000000e+000 
1.000000e+000 
1.000000e+000 
1.000000e+000 
1.000000e+000 
1.000000e+000 
1.000000e+000 
1.000000e+000 
1.000000e+000 
1.000000e+000 
1.000000e+000 
1.000000e+000 
1.000000e+000 
1.000000e+000 
1.283351e-004 
1.282691e-004 
1.282005e-004 
1.281871e-004 
1.281964e-004 
1.283362e-004 
1.285489e-004 
1.288212e-004 
1.291327e-004 
1.295570e-004 
1.300246e-004 
1.305094e-004 
1.310579e-004 
1.316869e-004 
1.323214e-004 
1.329690e-004 
1.337065e-004 
1.344820e-004 
1.352447e-004 
1.360524e-004 
1.369571e-004 
1.378537e-004 
1.387529e-004 
1.397394e-004 
1.407956e-004 
1.418118e-004 
1.428774e-004 
1.440485e-004 
1.452327e-004 
1.463783e-004 
1.476270e-004 
1.489498e-004 
1.502248e-004 
1.515001e-004 
1.529005e-004 
1.542937e-004 
1.556057e-004 
1.569721e-004 
1.584200e-004 
1.597581e-004 
1.610274e-004 
1.623759e-004 
1.636911e-004 
1.648191e-004 
1.659229e-004 
1.670576e-004 
1.680088e-004 
1.687596e-004 
1.695177e-004 
1.701753e-004 
1.705335e-004 
1.707438e-004 
1.709288e-004 
1.708473e-004 
1.704508e-004 
1.699799e-004 
1.693754e-004 
1.683985e-004 
1.672057e-004 
1.659719e-004 
1.644788e-004 
1.626518e-004 
1.607669e-004 
1.588132e-004 
1.565626e-004 
1.541662e-004 
1.518430e-004 
1.494146e-004 
1.468124e-004 
1.443128e-004 
1.419469e-004 
1.395186e-004 
1.371665e-004 
1.351058e-004 
1.331992e-004 
1.313853e-004 
1.298961e-004 
1.287655e-004 
1.278264e-004 
1.271757e-004 
1.269696e-004 
1.270916e-004 
1.274651e-004 
1.282415e-004 
1.294190e-004 
1.308503e-004 
1.325614e-004 
1.346413e-004 
1.369703e-004 
1.394661e-004 
1.421892e-004 
1.451270e-004 
1.481376e-004 
1.512226e-004 
1.544086e-004 
1.576224e-004 
1.607682e-004 
1.638996e-004 
1.669847e-004 
1.699565e-004 
1.727792e-004 
1.755177e-004 
1.780964e-004 
1.805013e-004 
1.827287e-004 
1.848342e-004 
1.867250e-004 
1.884530e-004 
1.900047e-004 
1.914313e-004 
1.926382e-004 
1.937314e-004 
1.946545e-004 
1.954745e-004 
1.960905e-004 
1.966446e-004 
1.970247e-004 
1.973318e-004 
1.974452e-004 
1.975349e-004 
1.974491e-004 
1.973259e-004 
1.970425e-004 
1.967953e-004 
1.965672e-004 
1.964607e-004 
1.000000e+000 
1.000000e+000 
1.283872e-004 
1.283202e-004 
1.282601e-004 
1.283106e-004 
1.283294e-004 
1.284640e-004 
1.286498e-004 
1.289425e-004 
1.292317e-004 
1.296210e-004 
1.300695e-004 
1.305544e-004 
1.310640e-004 
1.316541e-004 
1.322847e-004 
1.329148e-004 
1.336059e-004 
1.343534e-004 
1.351182e-004 
1.358883e-004 
1.367476e-004 
1.376296e-004 
1.385226e-004 
1.394527e-004 
1.404723e-004 
1.414816e-004 
1.425206e-004 
1.436236e-004 
1.447856e-004 
1.459217e-004 
1.471180e-004 
1.483741e-004 
1.496440e-004 
1.508955e-004 
1.522217e-004 
1.535669e-004 
1.548882e-004 
1.562063e-004 
1.575745e-004 
1.589017e-004 
1.601838e-004 
1.614570e-004 
1.627171e-004 
1.638813e-004 
1.649815e-004 
1.660298e-004 
1.669881e-004 
1.678100e-004 
1.685309e-004 
1.691328e-004 
1.695834e-004 
1.698620e-004 
1.699848e-004 
1.699345e-004 
1.696973e-004 
1.692497e-004 
1.686076e-004 
1.677816e-004 
1.667502e-004 
1.654886e-004 
1.640543e-004 
1.624657e-004 
1.606708e-004 
1.586924e-004 
1.566336e-004 
1.544660e-004 
1.521406e-004 
1.497735e-004 
1.474458e-004 
1.450641e-004 
1.426633e-004 
1.404169e-004 
1.382982e-004 
1.362192e-004 
1.343352e-004 
1.327580e-004 
1.313509e-004 
1.301356e-004 
1.293076e-004 
1.288197e-004 
1.285327e-004 
1.285994e-004 
1.291072e-004 
1.298827e-004 
1.309005e-004 
1.323407e-004 
1.341056e-004 
1.360360e-004 
1.382268e-004 
1.407524e-004 
1.433959e-004 
1.461301e-004 
1.490674e-004 
1.521379e-004 
1.551441e-004 
1.581966e-004 
1.613136e-004 
1.643598e-004 
1.672479e-004 
1.701446e-004 
1.729381e-004 
1.755484e-004 
1.779855e-004 
1.803880e-004 
1.825574e-004 
1.845462e-004 
1.863763e-004 
1.881341e-004 
1.896009e-004 
1.909671e-004 
1.921740e-004 
1.932956e-004 
1.941287e-004 
1.949611e-004 
1.955993e-004 
1.961734e-004 
1.964853e-004 
1.968732e-004 
1.970099e-004 
1.971326e-004 
1.970311e-004 
1.970457e-004 
1.968043e-004 
1.966275e-004 
1.964644e-004 
1.963917e-004 
1.000000e+000 
1.000000e+000 
1.284414e-004 
1.283928e-004 
1.283260e-004 
1.283181e-004 
1.284060e-004 
1.285462e-004 
1.287040e-004 
1.289637e-004 
1.292993e-004 
1.296509e-004 
1.300437e-004 
1.305397e-004 
1.310622e-004 
1.315798e-004 
1.321738e-004 
1.328439e-004 
1.334944e-004 
1.341630e-004 
1.349361e-004 
1.357338e-004 
1.364986e-004 
1.373354e-004 
1.382695e-004 
1.391725e-004 
1.400766e-004 
1.411001e-004 
1.421689e-004 
1.431787e-004 
1.442570e-004 
1.454553e-004 
1.466224e-004 
1.477526e-004 
1.490111e-004 
1.503254e-004 
1.515482e-004 
1.527982e-004 
1.541792e-004 
1.555063e-004 
1.567333e-004 
1.580504e-004 
1.594170e-004 
1.606243e-004 
1.617778e-004 
1.630245e-004 
1.641738e-004 
1.651161e-004 
1.660654e-004 
1.670165e-004 
1.677223e-004 
1.682515e-004 
1.688007e-004 
1.691887e-004 
1.692604e-004 
1.692318e-004 
1.691507e-004 
1.687573e-004 
1.680926e-004 
1.673857e-004 
1.664977e-004 
1.652559e-004 
1.638743e-004 
1.624469e-004 
1.607476e-004 
1.588047e-004 
1.568615e-004 
1.548333e-004 
1.525737e-004 
1.502811e-004 
1.480758e-004 
1.457909e-004 
1.434579e-004 
1.412958e-004 
1.392639e-004 
1.372591e-004 
1.354406e-004 
1.339119e-004 
1.325602e-004 
1.314079e-004 
1.306043e-004 
1.301206e-004 
1.298800e-004 
1.299708e-004 
1.304408e-004 
1.312057e-004 
1.322534e-004 
1.336447e-004 
1.353365e-004 
1.372615e-004 
1.394304e-004 
1.418415e-004 
1.444224e-004 
1.471390e-004 
1.499853e-004 
1.529245e-004 
1.558976e-004 
1.588895e-004 
1.618752e-004 
1.648215e-004 
1.676908e-004 
1.704774e-004 
1.731546e-004 
1.757104e-004 
1.781201e-004 
1.803899e-004 
1.825013e-004 
1.844616e-004 
1.862507e-004 
1.878914e-004 
1.893690e-004 
1.907024e-004 
1.918717e-004 
1.929163e-004 
1.938128e-004 
1.945880e-004 
1.952209e-004 
1.957612e-004 
1.961668e-004 
1.964754e-004 
1.966683e-004 
1.967915e-004 
1.967956e-004 
1.967372e-004 
1.966292e-004 
1.964713e-004 
1.962865e-004 
1.961419e-004 
1.000000e+000 
1.000000e+000 
1.284589e-004 
1.283426e-004 
1.283212e-004 
1.283197e-004 
1.283911e-004 
1.285267e-004 
1.287187e-004 
1.289480e-004 
1.292625e-004 
1.296267e-004 
1.300182e-004 
1.304618e-004 
1.309710e-004 
1.315054e-004 
1.320606e-004 
1.326782e-004 
1.333352e-004 
1.340053e-004 
1.347088e-004 
1.354755e-004 
1.362594e-004 
1.370633e-004 
1.379174e-004 
1.388239e-004 
1.397371e-004 
1.406884e-004 
1.416964e-004 
1.427392e-004 
1.437909e-004 
1.448954e-004 
1.460474e-004 
1.472169e-004 
1.484008e-004 
1.496373e-004 
1.508994e-004 
1.521615e-004 
1.534350e-004 
1.547433e-004 
1.560457e-004 
1.573225e-004 
1.585935e-004 
1.598670e-004 
1.610890e-004 
1.622473e-004 
1.633729e-004 
1.644526e-004 
1.654168e-004 
1.662768e-004 
1.670730e-004 
1.677524e-004 
1.682463e-004 
1.686134e-004 
1.688773e-004 
1.689358e-004 
1.687686e-004 
1.684812e-004 
1.680334e-004 
1.673092e-004 
1.663884e-004 
1.653689e-004 
1.641238e-004 
1.626101e-004 
1.610030e-004 
1.593056e-004 
1.573603e-004 
1.552751e-004 
1.532242e-004 
1.510780e-004 
1.487723e-004 
1.465444e-004 
1.444354e-004 
1.422615e-004 
1.401430e-004 
1.383015e-004 
1.366003e-004 
1.349544e-004 
1.336179e-004 
1.326354e-004 
1.317976e-004 
1.312064e-004 
1.310717e-004 
1.312326e-004 
1.315776e-004 
1.323201e-004 
1.334747e-004 
1.348088e-004 
1.363847e-004 
1.383558e-004 
1.405501e-004 
1.428309e-004 
1.453599e-004 
1.481194e-004 
1.508941e-004 
1.537057e-004 
1.566783e-004 
1.596523e-004 
1.625140e-004 
1.653780e-004 
1.682534e-004 
1.709550e-004 
1.735162e-004 
1.760341e-004 
1.784238e-004 
1.805760e-004 
1.826193e-004 
1.845612e-004 
1.863031e-004 
1.878372e-004 
1.893023e-004 
1.906127e-004 
1.917305e-004 
1.927067e-004 
1.936328e-004 
1.943721e-004 
1.949784e-004 
1.954932e-004 
1.959551e-004 
1.962224e-004 
1.964326e-004 
1.965677e-004 
1.966432e-004 
1.965401e-004 
1.964594e-004 
1.963322e-004 
1.961518e-004 
1.958675e-004 
1.000000e+000 
1.000000e+000 
1.284501e-004 
1.283051e-004 
1.282385e-004 
1.282685e-004 
1.283252e-004 
1.284451e-004 
1.286657e-004 
1.289084e-004 
1.291735e-004 
1.295328e-004 
1.299553e-004 
1.303647e-004 
1.308225e-004 
1.313776e-004 
1.319355e-004 
1.324825e-004 
1.331181e-004 
1.338178e-004 
1.344763e-004 
1.351708e-004 
1.359739e-004 
1.367816e-004 
1.375511e-004 
1.384215e-004 
1.393739e-004 
1.402777e-004 
1.411986e-004 
1.422581e-004 
1.433295e-004 
1.443425e-004 
1.454505e-004 
1.466716e-004 
1.478264e-004 
1.489696e-004 
1.502552e-004 
1.515637e-004 
1.527661e-004 
1.540325e-004 
1.554118e-004 
1.566981e-004 
1.578997e-004 
1.592113e-004 
1.605220e-004 
1.616560e-004 
1.627662e-004 
1.639485e-004 
1.649770e-004 
1.658159e-004 
1.666732e-004 
1.674737e-004 
1.680036e-004 
1.683932e-004 
1.687706e-004 
1.689293e-004 
1.687963e-004 
1.685815e-004 
1.682512e-004 
1.676018e-004 
1.667361e-004 
1.658054e-004 
1.646526e-004 
1.632083e-004 
1.616646e-004 
1.600335e-004 
1.581643e-004 
1.561481e-004 
1.541312e-004 
1.520269e-004 
1.498011e-004 
1.476105e-004 
1.454910e-004 
1.433681e-004 
1.413187e-004 
1.394492e-004 
1.377295e-004 
1.361612e-004 
1.348355e-004 
1.337763e-004 
1.329654e-004 
1.324409e-004 
1.322349e-004 
1.323385e-004 
1.327585e-004 
1.334967e-004 
1.345402e-004 
1.358884e-004 
1.375257e-004 
1.394069e-004 
1.415250e-004 
1.438708e-004 
1.463825e-004 
1.490169e-004 
1.517859e-004 
1.546410e-004 
1.575105e-004 
1.603914e-004 
1.632873e-004 
1.661187e-004 
1.688565e-004 
1.715263e-004 
1.741028e-004 
1.765165e-004 
1.787971e-004 
1.809608e-004 
1.829646e-004 
1.847815e-004 
1.864753e-004 
1.880262e-004 
1.894043e-004 
1.906254e-004 
1.917494e-004 
1.927209e-004 
1.935496e-004 
1.942673e-004 
1.949053e-004 
1.953926e-004 
1.957880e-004 
1.961029e-004 
1.963397e-004 
1.964376e-004 
1.964947e-004 
1.964868e-004 
1.963981e-004 
1.962000e-004 
1.959221e-004 
1.956274e-004 
1.000000e+000 
1.000000e+000 
1.282919e-004 
1.281604e-004 
1.280996e-004 
1.281336e-004 
1.282151e-004 
1.283400e-004 
1.285204e-004 
1.287841e-004 
1.290799e-004 
1.294033e-004 
1.297904e-004 
1.302356e-004 
1.306894e-004 
1.311763e-004 
1.317293e-004 
1.323105e-004 
1.328928e-004 
1.335262e-004 
1.342181e-004 
1.349141e-004 
1.356253e-004 
1.364064e-004 
1.372274e-004 
1.380429e-004 
1.389026e-004 
1.398384e-004 
1.407891e-004 
1.417428e-004 
1.427705e-004 
1.438598e-004 
1.449401e-004 
1.460468e-004 
1.472422e-004 
1.484623e-004 
1.496583e-004 
1.509089e-004 
1.522322e-004 
1.535260e-004 
1.547948e-004 
1.561336e-004 
1.574880e-004 
1.587542e-004 
1.600081e-004 
1.613114e-004 
1.625337e-004 
1.636262e-004 
1.647198e-004 
1.657868e-004 
1.666623e-004 
1.674034e-004 
1.681341e-004 
1.687100e-004 
1.690195e-004 
1.692291e-004 
1.693650e-004 
1.692113e-004 
1.688026e-004 
1.683375e-004 
1.676874e-004 
1.666872e-004 
1.655404e-004 
1.643454e-004 
1.628649e-004 
1.611179e-004 
1.593760e-004 
1.575468e-004 
1.554383e-004 
1.532830e-004 
1.512428e-004 
1.490825e-004 
1.468150e-004 
1.447518e-004 
1.428287e-004 
1.408469e-004 
1.390404e-004 
1.375866e-004 
1.362559e-004 
1.350480e-004 
1.342528e-004 
1.338011e-004 
1.334896e-004 
1.335103e-004 
1.339974e-004 
1.347201e-004 
1.356489e-004 
1.370008e-004 
1.386810e-004 
1.404875e-004 
1.425453e-004 
1.449312e-004 
1.474274e-004 
1.499828e-004 
1.527433e-004 
1.556165e-004 
1.584250e-004 
1.612519e-004 
1.641503e-004 
1.669533e-004 
1.696140e-004 
1.722511e-004 
1.748071e-004 
1.771567e-004 
1.793661e-004 
1.815029e-004 
1.834562e-004 
1.852008e-004 
1.868388e-004 
1.883606e-004 
1.896738e-004 
1.908393e-004 
1.919239e-004 
1.928693e-004 
1.936405e-004 
1.943322e-004 
1.949471e-004 
1.954243e-004 
1.957823e-004 
1.961018e-004 
1.963310e-004 
1.964433e-004 
1.964796e-004 
1.964801e-004 
1.963523e-004 
1.961638e-004 
1.959233e-004 
1.955449e-004 
1.000000e+000 
1.000000e+000 
1.280709e-004 
1.279946e-004 
1.279281e-004 
1.279208e-004 
1.280207e-004 
1.281904e-004 
1.283555e-004 
1.285953e-004 
1.289195e-004 
1.292526e-004 
1.295975e-004 
1.300371e-004 
1.305156e-004 
1.309710e-004 
1.314799e-004 
1.320760e-004 
1.326567e-004 
1.332311e-004 
1.339024e-004 
1.346181e-004 
1.352907e-004 
1.360149e-004 
1.368463e-004 
1.376628e-004 
1.384597e-004 
1.393701e-004 
1.403480e-004 
1.412730e-004 
1.422463e-004 
1.433533e-004 
1.444559e-004 
1.455189e-004 
1.467010e-004 
1.479719e-004 
1.491763e-004 
1.504011e-004 
1.517663e-004 
1.531248e-004 
1.544017e-004 
1.557622e-004 
1.572031e-004 
1.585385e-004 
1.598244e-004 
1.612020e-004 
1.625348e-004 
1.637062e-004 
1.648675e-004 
1.660422e-004 
1.670395e-004 
1.678753e-004 
1.686944e-004 
1.693894e-004 
1.698299e-004 
1.701357e-004 
1.703532e-004 
1.703247e-004 
1.700458e-004 
1.696436e-004 
1.690593e-004 
1.681946e-004 
1.671395e-004 
1.659497e-004 
1.645410e-004 
1.629214e-004 
1.611848e-004 
1.593245e-004 
1.573163e-004 
1.552240e-004 
1.530929e-004 
1.509264e-004 
1.487628e-004 
1.466427e-004 
1.445947e-004 
1.426715e-004 
1.408986e-004 
1.392821e-004 
1.378898e-004 
1.367692e-004 
1.358833e-004 
1.352629e-004 
1.349958e-004 
1.350444e-004 
1.353541e-004 
1.360109e-004 
1.370331e-004 
1.383036e-004 
1.398300e-004 
1.416930e-004 
1.437927e-004 
1.460297e-004 
1.484799e-004 
1.511336e-004 
1.538346e-004 
1.565801e-004 
1.594406e-004 
1.623073e-004 
1.650766e-004 
1.678289e-004 
1.705602e-004 
1.731376e-004 
1.755652e-004 
1.779309e-004 
1.801548e-004 
1.821646e-004 
1.840425e-004 
1.858210e-004 
1.873964e-004 
1.887902e-004 
1.900908e-004 
1.912642e-004 
1.922414e-004 
1.931118e-004 
1.939104e-004 
1.945711e-004 
1.950863e-004 
1.955600e-004 
1.959535e-004 
1.962187e-004 
1.963955e-004 
1.965526e-004 
1.965975e-004 
1.965491e-004 
1.964356e-004 
1.962429e-004 
1.958755e-004 
1.954599e-004 
1.000000e+000 
1.000000e+000 
1.277766e-004 
1.276635e-004 
1.276609e-004 
1.277066e-004 
1.277781e-004 
1.279356e-004 
1.281563e-004 
1.283943e-004 
1.286723e-004 
1.290335e-004 
1.294154e-004 
1.297986e-004 
1.302454e-004 
1.307546e-004 
1.312484e-004 
1.317610e-004 
1.323565e-004 
1.329766e-004 
1.335706e-004 
1.342251e-004 
1.349603e-004 
1.356803e-004 
1.364004e-004 
1.372234e-004 
1.380956e-004 
1.389329e-004 
1.398264e-004 
1.408376e-004 
1.418478e-004 
1.428398e-004 
1.439485e-004 
1.451442e-004 
1.462935e-004 
1.474776e-004 
1.488062e-004 
1.501484e-004 
1.514289e-004 
1.528084e-004 
1.542964e-004 
1.557054e-004 
1.570787e-004 
1.585823e-004 
1.600858e-004 
1.614371e-004 
1.628044e-004 
1.642562e-004 
1.655548e-004 
1.666831e-004 
1.678621e-004 
1.689875e-004 
1.698269e-004 
1.705411e-004 
1.712731e-004 
1.717621e-004 
1.719258e-004 
1.720369e-004 
1.720455e-004 
1.716663e-004 
1.710479e-004 
1.704137e-004 
1.695177e-004 
1.682360e-004 
1.668824e-004 
1.654751e-004 
1.637196e-004 
1.617587e-004 
1.598756e-004 
1.578648e-004 
1.555950e-004 
1.533959e-004 
1.513329e-004 
1.491358e-004 
1.469416e-004 
1.450407e-004 
1.432617e-004 
1.414849e-004 
1.400090e-004 
1.388949e-004 
1.379028e-004 
1.371420e-004 
1.368421e-004 
1.368405e-004 
1.370224e-004 
1.376041e-004 
1.385984e-004 
1.397886e-004 
1.412319e-004 
1.430634e-004 
1.451234e-004 
1.472983e-004 
1.497135e-004 
1.523438e-004 
1.550074e-004 
1.577221e-004 
1.605617e-004 
1.633988e-004 
1.661418e-004 
1.688710e-004 
1.715689e-004 
1.741118e-004 
1.765139e-004 
1.788393e-004 
1.810149e-004 
1.829877e-004 
1.848265e-004 
1.865444e-004 
1.880701e-004 
1.894244e-004 
1.906707e-004 
1.917812e-004 
1.927219e-004 
1.935511e-004 
1.942943e-004 
1.949127e-004 
1.954111e-004 
1.958459e-004 
1.962031e-004 
1.964560e-004 
1.966299e-004 
1.967604e-004 
1.967970e-004 
1.967317e-004 
1.965963e-004 
1.964085e-004 
1.960983e-004 
1.956222e-004 
1.000000e+000 
1.000000e+000 
1.274373e-004 
1.273438e-004 
1.273209e-004 
1.274012e-004 
1.275017e-004 
1.276438e-004 
1.278772e-004 
1.281518e-004 
1.284194e-004 
1.287541e-004 
1.291590e-004 
1.295564e-004 
1.299645e-004 
1.304580e-004 
1.309764e-004 
1.314707e-004 
1.320197e-004 
1.326449e-004 
1.332509e-004 
1.338620e-004 
1.345667e-004 
1.353089e-004 
1.360204e-004 
1.367965e-004 
1.376704e-004 
1.385371e-004 
1.394082e-004 
1.403960e-004 
1.414449e-004 
1.424686e-004 
1.435612e-004 
1.447787e-004 
1.460023e-004 
1.472250e-004 
1.485677e-004 
1.499887e-004 
1.513763e-004 
1.528101e-004 
1.543597e-004 
1.559078e-004 
1.574142e-004 
1.589915e-004 
1.606133e-004 
1.621568e-004 
1.636645e-004 
1.652068e-004 
1.666838e-004 
1.680318e-004 
1.693276e-004 
1.705632e-004 
1.716340e-004 
1.725451e-004 
1.733459e-004 
1.739809e-004 
1.743951e-004 
1.746184e-004 
1.746581e-004 
1.744738e-004 
1.740540e-004 
1.734128e-004 
1.725596e-004 
1.714948e-004 
1.702037e-004 
1.687024e-004 
1.670486e-004 
1.652409e-004 
1.632481e-004 
1.611485e-004 
1.590216e-004 
1.568109e-004 
1.545287e-004 
1.523286e-004 
1.502204e-004 
1.481173e-004 
1.461452e-004 
1.444389e-004 
1.428882e-004 
1.414828e-004 
1.404264e-004 
1.397058e-004 
1.391707e-004 
1.389519e-004 
1.391802e-004 
1.396797e-004 
1.404033e-004 
1.415422e-004 
1.430330e-004 
1.446753e-004 
1.465736e-004 
1.488179e-004 
1.511944e-004 
1.536322e-004 
1.562880e-004 
1.590748e-004 
1.617922e-004 
1.645246e-004 
1.673455e-004 
1.700645e-004 
1.726217e-004 
1.751598e-004 
1.776220e-004 
1.798502e-004 
1.819280e-004 
1.839435e-004 
1.857646e-004 
1.873508e-004 
1.888420e-004 
1.902245e-004 
1.913822e-004 
1.923871e-004 
1.933401e-004 
1.941526e-004 
1.947854e-004 
1.953586e-004 
1.958857e-004 
1.962657e-004 
1.965429e-004 
1.968119e-004 
1.970026e-004 
1.970598e-004 
1.970739e-004 
1.970669e-004 
1.969246e-004 
1.966452e-004 
1.962868e-004 
1.958739e-004 
1.000000e+000 
1.000000e+000 
1.269629e-004 
1.269360e-004 
1.269407e-004 
1.270120e-004 
1.271655e-004 
1.273468e-004 
1.275392e-004 
1.278186e-004 
1.281510e-004 
1.284675e-004 
1.288185e-004 
1.292604e-004 
1.297018e-004 
1.301220e-004 
1.306209e-004 
1.311839e-004 
1.317026e-004 
1.322423e-004 
1.328920e-004 
1.335521e-004 
1.341662e-004 
1.348724e-004 
1.356793e-004 
1.364438e-004 
1.372168e-004 
1.381417e-004 
1.391128e-004 
1.400271e-004 
1.410423e-004 
1.422164e-004 
1.433629e-004 
1.444984e-004 
1.458174e-004 
1.472319e-004 
1.485682e-004 
1.499855e-004 
1.516025e-004 
1.531999e-004 
1.547247e-004 
1.564166e-004 
1.582231e-004 
1.598925e-004 
1.615504e-004 
1.633867e-004 
1.651651e-004 
1.667429e-004 
1.683825e-004 
1.700919e-004 
1.715517e-004 
1.728321e-004 
1.741904e-004 
1.754090e-004 
1.762623e-004 
1.770181e-004 
1.777611e-004 
1.781472e-004 
1.781928e-004 
1.782121e-004 
1.780407e-004 
1.774135e-004 
1.765944e-004 
1.757417e-004 
1.745374e-004 
1.729736e-004 
1.713945e-004 
1.697016e-004 
1.676457e-004 
1.654815e-004 
1.634058e-004 
1.611602e-004 
1.587434e-004 
1.564851e-004 
1.543311e-004 
1.520838e-004 
1.499706e-004 
1.481665e-004 
1.464718e-004 
1.448965e-004 
1.436961e-004 
1.428176e-004 
1.421134e-004 
1.417447e-004 
1.418078e-004 
1.421395e-004 
1.427365e-004 
1.437374e-004 
1.450643e-004 
1.465990e-004 
1.484153e-004 
1.505250e-004 
1.527939e-004 
1.551970e-004 
1.577786e-004 
1.604574e-004 
1.631470e-004 
1.658689e-004 
1.686050e-004 
1.712687e-004 
1.738422e-004 
1.763423e-004 
1.787222e-004 
1.809426e-004 
1.830230e-004 
1.849611e-004 
1.867237e-004 
1.883177e-004 
1.897655e-004 
1.910572e-004 
1.921890e-004 
1.931859e-004 
1.940583e-004 
1.948038e-004 
1.954361e-004 
1.959741e-004 
1.964196e-004 
1.967796e-004 
1.970632e-004 
1.972791e-004 
1.974255e-004 
1.975068e-004 
1.975140e-004 
1.974479e-004 
1.972958e-004 
1.970770e-004 
1.967556e-004 
1.962798e-004 
1.000000e+000 
1.000000e+000 
1.264474e-004 
1.264706e-004 
1.265219e-004 
1.265966e-004 
1.267477e-004 
1.269774e-004 
1.272032e-004 
1.274573e-004 
1.277895e-004 
1.281516e-004 
1.284974e-004 
1.288981e-004 
1.293600e-004 
1.298120e-004 
1.302689e-004 
1.308022e-004 
1.313635e-004 
1.319057e-004 
1.324967e-004 
1.331642e-004 
1.338301e-004 
1.345068e-004 
1.352732e-004 
1.360951e-004 
1.369126e-004 
1.377949e-004 
1.387822e-004 
1.398004e-004 
1.408453e-004 
1.420024e-004 
1.432503e-004 
1.445203e-004 
1.458634e-004 
1.473332e-004 
1.488622e-004 
1.504223e-004 
1.520838e-004 
1.538453e-004 
1.556305e-004 
1.574516e-004 
1.593594e-004 
1.613095e-004 
1.632416e-004 
1.651839e-004 
1.671557e-004 
1.690941e-004 
1.709534e-004 
1.727624e-004 
1.745224e-004 
1.761597e-004 
1.776354e-004 
1.789922e-004 
1.802205e-004 
1.812243e-004 
1.819921e-004 
1.826003e-004 
1.830019e-004 
1.830872e-004 
1.829220e-004 
1.825932e-004 
1.819810e-004 
1.810271e-004 
1.798984e-004 
1.786120e-004 
1.769995e-004 
1.751466e-004 
1.732514e-004 
1.711930e-004 
1.688706e-004 
1.665322e-004 
1.642607e-004 
1.618422e-004 
1.593743e-004 
1.571361e-004 
1.549995e-004 
1.528286e-004 
1.509127e-004 
1.493544e-004 
1.478976e-004 
1.466324e-004 
1.458459e-004 
1.453750e-004 
1.450514e-004 
1.451447e-004 
1.457147e-004 
1.464699e-004 
1.474694e-004 
1.489407e-004 
1.506808e-004 
1.525052e-004 
1.546242e-004 
1.570441e-004 
1.594786e-004 
1.619593e-004 
1.646531e-004 
1.673677e-004 
1.699408e-004 
1.725390e-004 
1.751668e-004 
1.775969e-004 
1.798588e-004 
1.821026e-004 
1.841975e-004 
1.860265e-004 
1.877371e-004 
1.893690e-004 
1.907639e-004 
1.919530e-004 
1.930814e-004 
1.940814e-004 
1.948606e-004 
1.955436e-004 
1.961911e-004 
1.966912e-004 
1.970486e-004 
1.973957e-004 
1.976924e-004 
1.978515e-004 
1.979479e-004 
1.980530e-004 
1.980601e-004 
1.979551e-004 
1.978140e-004 
1.976086e-004 
1.972186e-004 
1.967532e-004 
1.000000e+000 
1.000000e+000 
1.258942e-004 
1.258988e-004 
1.260069e-004 
1.261706e-004 
1.263159e-004 
1.265223e-004 
1.268136e-004 
1.271019e-004 
1.273820e-004 
1.277560e-004 
1.281686e-004 
1.285372e-004 
1.289479e-004 
1.294584e-004 
1.299434e-004 
1.303995e-004 
1.309617e-004 
1.315844e-004 
1.321410e-004 
1.327426e-004 
1.334842e-004 
1.342180e-004 
1.349086e-004 
1.357416e-004 
1.366893e-004 
1.375772e-004 
1.385147e-004 
1.396582e-004 
1.408399e-004 
1.419719e-004 
1.432764e-004 
1.447704e-004 
1.462187e-004 
1.477015e-004 
1.494380e-004 
1.512611e-004 
1.530005e-004 
1.548914e-004 
1.570106e-004 
1.590686e-004 
1.610758e-004 
1.633058e-004 
1.656138e-004 
1.677384e-004 
1.698908e-004 
1.722177e-004 
1.743995e-004 
1.763599e-004 
1.784032e-004 
1.804371e-004 
1.821337e-004 
1.836599e-004 
1.852283e-004 
1.865370e-004 
1.874428e-004 
1.882590e-004 
1.889638e-004 
1.892214e-004 
1.891598e-004 
1.890360e-004 
1.886082e-004 
1.877207e-004 
1.866754e-004 
1.855115e-004 
1.839474e-004 
1.820960e-004 
1.802185e-004 
1.781499e-004 
1.757778e-004 
1.733715e-004 
1.709945e-004 
1.684563e-004 
1.658707e-004 
1.634501e-004 
1.610931e-004 
1.587533e-004 
1.566337e-004 
1.547718e-004 
1.530638e-004 
1.516058e-004 
1.505082e-004 
1.496992e-004 
1.491741e-004 
1.490270e-004 
1.492333e-004 
1.497406e-004 
1.505891e-004 
1.517701e-004 
1.532188e-004 
1.549334e-004 
1.569003e-004 
1.590477e-004 
1.613510e-004 
1.637999e-004 
1.663199e-004 
1.688663e-004 
1.714442e-004 
1.739997e-004 
1.764666e-004 
1.788573e-004 
1.811624e-004 
1.833142e-004 
1.853065e-004 
1.871753e-004 
1.888829e-004 
1.903962e-004 
1.917611e-004 
1.929946e-004 
1.940519e-004 
1.949542e-004 
1.957555e-004 
1.964383e-004 
1.969802e-004 
1.974393e-004 
1.978350e-004 
1.981315e-004 
1.983422e-004 
1.985218e-004 
1.986404e-004 
1.986762e-004 
1.986581e-004 
1.985997e-004 
1.984426e-004 
1.982114e-004 
1.979215e-004 
1.974890e-004 
1.000000e+000 
1.000000e+000 
1.252800e-004 
1.253547e-004 
1.254534e-004 
1.256438e-004 
1.258616e-004 
1.260771e-004 
1.263462e-004 
1.266818e-004 
1.270042e-004 
1.273361e-004 
1.277395e-004 
1.281736e-004 
1.285803e-004 
1.290294e-004 
1.295502e-004 
1.300674e-004 
1.305767e-004 
1.311664e-004 
1.318107e-004 
1.324394e-004 
1.331096e-004 
1.338859e-004 
1.346949e-004 
1.355114e-004 
1.364300e-004 
1.374594e-004 
1.385121e-004 
1.396249e-004 
1.408874e-004 
1.422473e-004 
1.436407e-004 
1.451546e-004 
1.468352e-004 
1.485863e-004 
1.503928e-004 
1.523616e-004 
1.544722e-004 
1.566122e-004 
1.588247e-004 
1.612004e-004 
1.636441e-004 
1.660608e-004 
1.685493e-004 
1.711461e-004 
1.736898e-004 
1.761448e-004 
1.786482e-004 
1.811413e-004 
1.834356e-004 
1.855999e-004 
1.877585e-004 
1.897335e-004 
1.913914e-004 
1.929178e-004 
1.943381e-004 
1.953903e-004 
1.960984e-004 
1.966985e-004 
1.970422e-004 
1.969068e-004 
1.965211e-004 
1.960253e-004 
1.951209e-004 
1.937896e-004 
1.923753e-004 
1.907875e-004 
1.887445e-004 
1.865091e-004 
1.843245e-004 
1.818860e-004 
1.791517e-004 
1.765375e-004 
1.739988e-004 
1.712300e-004 
1.685111e-004 
1.661288e-004 
1.637787e-004 
1.614116e-004 
1.594484e-004 
1.578395e-004 
1.562768e-004 
1.550208e-004 
1.543141e-004 
1.538421e-004 
1.535469e-004 
1.537733e-004 
1.544219e-004 
1.551949e-004 
1.562906e-004 
1.578549e-004 
1.595781e-004 
1.613916e-004 
1.635352e-004 
1.658803e-004 
1.681698e-004 
1.705411e-004 
1.730800e-004 
1.755334e-004 
1.778447e-004 
1.801936e-004 
1.824876e-004 
1.845404e-004 
1.864638e-004 
1.883458e-004 
1.900195e-004 
1.914534e-004 
1.928052e-004 
1.940436e-004 
1.950420e-004 
1.958940e-004 
1.966991e-004 
1.973582e-004 
1.978390e-004 
1.982755e-004 
1.986716e-004 
1.989292e-004 
1.990990e-004 
1.992793e-004 
1.993949e-004 
1.993957e-004 
1.993683e-004 
1.993396e-004 
1.991959e-004 
1.989314e-004 
1.986165e-004 
1.982600e-004 
1.000000e+000 
1.000000e+000 
1.245632e-004 
1.247361e-004 
1.249001e-004 
1.250744e-004 
1.253352e-004 
1.256272e-004 
1.258779e-004 
1.261899e-004 
1.265811e-004 
1.269393e-004 
1.272850e-004 
1.277373e-004 
1.282139e-004 
1.286311e-004 
1.291107e-004 
1.296990e-004 
1.302451e-004 
1.307753e-004 
1.314450e-004 
1.321733e-004 
1.328358e-004 
1.335874e-004 
1.345082e-004 
1.354179e-004 
1.363192e-004 
1.374228e-004 
1.386560e-004 
1.398446e-004 
1.411513e-004 
1.427140e-004 
1.443201e-004 
1.459242e-004 
1.477773e-004 
1.498385e-004 
1.518654e-004 
1.539968e-004 
1.564267e-004 
1.589284e-004 
1.613738e-004 
1.640275e-004 
1.668936e-004 
1.696689e-004 
1.724281e-004 
1.754099e-004 
1.783996e-004 
1.811866e-004 
1.840125e-004 
1.869374e-004 
1.896354e-004 
1.921098e-004 
1.946191e-004 
1.969970e-004 
1.989929e-004 
2.008077e-004 
2.025500e-004 
2.039307e-004 
2.049133e-004 
2.057466e-004 
2.063310e-004 
2.064452e-004 
2.062527e-004 
2.058806e-004 
2.051246e-004 
2.039615e-004 
2.026016e-004 
2.010030e-004 
1.990355e-004 
1.968378e-004 
1.945147e-004 
1.919668e-004 
1.892262e-004 
1.864367e-004 
1.835888e-004 
1.806697e-004 
1.777906e-004 
1.749939e-004 
1.722754e-004 
1.697181e-004 
1.673671e-004 
1.652136e-004 
1.633357e-004 
1.617818e-004 
1.605037e-004 
1.595517e-004 
1.590066e-004 
1.587906e-004 
1.588723e-004 
1.593559e-004 
1.601960e-004 
1.612626e-004 
1.626192e-004 
1.643018e-004 
1.661448e-004 
1.681036e-004 
1.702744e-004 
1.725567e-004 
1.748018e-004 
1.770816e-004 
1.794176e-004 
1.816433e-004 
1.837340e-004 
1.857953e-004 
1.877482e-004 
1.894789e-004 
1.910773e-004 
1.925926e-004 
1.939045e-004 
1.950127e-004 
1.960375e-004 
1.969440e-004 
1.976475e-004 
1.982404e-004 
1.987912e-004 
1.992128e-004 
1.994995e-004 
1.997674e-004 
1.999961e-004 
2.001062e-004 
2.001624e-004 
2.002331e-004 
2.002250e-004 
2.001104e-004 
1.999795e-004 
1.998289e-004 
1.995465e-004 
1.991345e-004 
1.000000e+000 
1.000000e+000 
1.238585e-004 
1.240589e-004 
1.243005e-004 
1.245323e-004 
1.247734e-004 
1.250914e-004 
1.254234e-004 
1.257274e-004 
1.260749e-004 
1.264960e-004 