# vtk DataFile Version 2.0
2D-ADE data file 
ASCII
DATASET RECTILINEAR_GRID
DIMENSIONS 128 128 1
X_COORDINATES 128 int
0 1 2 3 4 5 6 7 8 9 10 11 12 13 14 15 16 17 18 19 20 21 22 23 24 25 26 27 28 29 30 31 32 33 34 35 36 37 38 39 40 41 42 43 44 45 46 47 48 49 50 51 52 53 54 55 56 57 58 59 60 61 62 63 64 65 66 67 68 69 70 71 72 73 74 75 76 77 78 79 80 81 82 83 84 85 86 87 88 89 90 91 92 93 94 95 96 97 98 99 100 101 102 103 104 105 106 107 108 109 110 111 112 113 114 115 116 117 118 119 120 121 122 123 124 125 126 127 
Y_COORDINATES 128 int
0 1 2 3 4 5 6 7 8 9 10 11 12 13 14 15 16 17 18 19 20 21 22 23 24 25 26 27 28 29 30 31 32 33 34 35 36 37 38 39 40 41 42 43 44 45 46 47 48 49 50 51 52 53 54 55 56 57 58 59 60 61 62 63 64 65 66 67 68 69 70 71 72 73 74 75 76 77 78 79 80 81 82 83 84 85 86 87 88 89 90 91 92 93 94 95 96 97 98 99 100 101 102 103 104 105 106 107 108 109 110 111 112 113 114 115 116 117 118 119 120 121 122 123 124 125 126 127 
Z_COORDINATES 1 int
0
POINT_DATA 16384 
SCALARS density double 1
LOOKUP_TABLE default
1.000000e+000 
1.000000e+000 
1.000000e+000 
1.000000e+000 
1.000000e+000 
1.000000e+000 
1.000000e+000 
1.000000e+000 
1.000000e+000 
1.000000e+000 
1.000000e+000 
1.000000e+000 
1.000000e+000 
1.000000e+000 
1.000000e+000 
1.000000e+000 
1.000000e+000 
1.000000e+000 
1.000000e+000 
1.000000e+000 
1.000000e+000 
1.000000e+000 
1.000000e+000 
1.000000e+000 
1.000000e+000 
1.000000e+000 
1.000000e+000 
1.000000e+000 
1.000000e+000 
1.000000e+000 
1.000000e+000 
1.000000e+000 
1.000000e+000 
1.000000e+000 
1.000000e+000 
1.000000e+000 
1.000000e+000 
1.000000e+000 
1.000000e+000 
1.000000e+000 
1.000000e+000 
1.000000e+000 
1.000000e+000 
1.000000e+000 
1.000000e+000 
1.000000e+000 
1.000000e+000 
1.000000e+000 
1.000000e+000 
1.000000e+000 
1.000000e+000 
1.000000e+000 
1.000000e+000 
1.000000e+000 
1.000000e+000 
1.000000e+000 
1.000000e+000 
1.000000e+000 
1.000000e+000 
1.000000e+000 
1.000000e+000 
1.000000e+000 
1.000000e+000 
1.000000e+000 
1.000000e+000 
1.000000e+000 
1.000000e+000 
1.000000e+000 
1.000000e+000 
1.000000e+000 
1.000000e+000 
1.000000e+000 
1.000000e+000 
1.000000e+000 
1.000000e+000 
1.000000e+000 
1.000000e+000 
1.000000e+000 
1.000000e+000 
1.000000e+000 
1.000000e+000 
1.000000e+000 
1.000000e+000 
1.000000e+000 
1.000000e+000 
1.000000e+000 
1.000000e+000 
1.000000e+000 
1.000000e+000 
1.000000e+000 
1.000000e+000 
1.000000e+000 
1.000000e+000 
1.000000e+000 
1.000000e+000 
1.000000e+000 
1.000000e+000 
1.000000e+000 
1.000000e+000 
1.000000e+000 
1.000000e+000 
1.000000e+000 
1.000000e+000 
1.000000e+000 
1.000000e+000 
1.000000e+000 
1.000000e+000 
1.000000e+000 
1.000000e+000 
1.000000e+000 
1.000000e+000 
1.000000e+000 
1.000000e+000 
1.000000e+000 
1.000000e+000 
1.000000e+000 
1.000000e+000 
1.000000e+000 
1.000000e+000 
1.000000e+000 
1.000000e+000 
1.000000e+000 
1.000000e+000 
1.000000e+000 
1.000000e+000 
1.000000e+000 
1.000000e+000 
1.000000e+000 
1.000000e+000 
1.178383e-004 
1.177441e-004 
1.176120e-004 
1.175368e-004 
1.174946e-004 
1.176470e-004 
1.178853e-004 
1.182408e-004 
1.186589e-004 
1.192422e-004 
1.198797e-004 
1.205793e-004 
1.213559e-004 
1.222400e-004 
1.231353e-004 
1.240722e-004 
1.251031e-004 
1.261867e-004 
1.272673e-004 
1.284147e-004 
1.296641e-004 
1.309242e-004 
1.322071e-004 
1.335992e-004 
1.350755e-004 
1.365407e-004 
1.380832e-004 
1.397545e-004 
1.414636e-004 
1.431691e-004 
1.450053e-004 
1.469390e-004 
1.488545e-004 
1.508014e-004 
1.528941e-004 
1.549997e-004 
1.570490e-004 
1.591703e-004 
1.613822e-004 
1.634943e-004 
1.655462e-004 
1.676743e-004 
1.697606e-004 
1.716499e-004 
1.734977e-004 
1.753473e-004 
1.769810e-004 
1.783757e-004 
1.797293e-004 
1.809251e-004 
1.817600e-004 
1.823770e-004 
1.828909e-004 
1.830542e-004 
1.828138e-004 
1.824039e-004 
1.817616e-004 
1.806446e-004 
1.792073e-004 
1.776237e-004 
1.756762e-004 
1.732912e-004 
1.707486e-004 
1.680423e-004 
1.649503e-004 
1.616312e-004 
1.583140e-004 
1.548303e-004 
1.511239e-004 
1.474845e-004 
1.439566e-004 
1.403594e-004 
1.368481e-004 
1.336520e-004 
1.306495e-004 
1.277965e-004 
1.253389e-004 
1.233226e-004 
1.215950e-004 
1.202656e-004 
1.194961e-004 
1.191773e-004 
1.192410e-004 
1.198394e-004 
1.209667e-004 
1.224779e-004 
1.243947e-004 
1.267949e-004 
1.295500e-004 
1.325723e-004 
1.359058e-004 
1.395230e-004 
1.432710e-004 
1.471399e-004 
1.511355e-004 
1.551741e-004 
1.591490e-004 
1.631011e-004 
1.669828e-004 
1.707244e-004 
1.742802e-004 
1.777083e-004 
1.809253e-004 
1.839220e-004 
1.866857e-004 
1.892748e-004 
1.915936e-004 
1.937040e-004 
1.955834e-004 
1.972951e-004 
1.987411e-004 
2.000403e-004 
2.011256e-004 
2.020833e-004 
2.028021e-004 
2.034410e-004 
2.038721e-004 
2.042209e-004 
2.043453e-004 
2.044383e-004 
2.043273e-004 
2.041773e-004 
2.038387e-004 
2.035397e-004 
2.032679e-004 
2.031433e-004 
1.000000e+000 
1.000000e+000 
1.179218e-004 
1.178246e-004 
1.177165e-004 
1.177411e-004 
1.177136e-004 
1.178794e-004 
1.180852e-004 
1.184709e-004 
1.188504e-004 
1.194003e-004 
1.200018e-004 
1.206939e-004 
1.214102e-004 
1.222509e-004 
1.231233e-004 
1.240301e-004 
1.249996e-004 
1.260504e-004 
1.271156e-004 
1.282150e-004 
1.294114e-004 
1.306500e-004 
1.319103e-004 
1.332389e-004 
1.346725e-004 
1.361181e-004 
1.376185e-004 
1.392158e-004 
1.408921e-004 
1.425698e-004 
1.443402e-004 
1.461991e-004 
1.480927e-004 
1.499964e-004 
1.520043e-004 
1.540501e-004 
1.560892e-004 
1.581470e-004 
1.602707e-004 
1.623579e-004 
1.644063e-004 
1.664506e-004 
1.684753e-004 
1.703890e-004 
1.722252e-004 
1.739871e-004 
1.756250e-004 
1.770867e-004 
1.784058e-004 
1.795513e-004 
1.804826e-004 
1.811750e-004 
1.816391e-004 
1.818462e-004 
1.817793e-004 
1.814110e-004 
1.807514e-004 
1.798063e-004 
1.785551e-004 
1.769703e-004 
1.751088e-004 
1.729921e-004 
1.705716e-004 
1.678724e-004 
1.650057e-004 
1.619512e-004 
1.586668e-004 
1.552793e-004 
1.518842e-004 
1.483988e-004 
1.448702e-004 
1.414899e-004 
1.382460e-004 
1.350626e-004 
1.321126e-004 
1.295250e-004 
1.271741e-004 
1.250951e-004 
1.234991e-004 
1.223477e-004 
1.215081e-004 
1.211439e-004 
1.213465e-004 
1.219420e-004 
1.229063e-004 
1.244204e-004 
1.263768e-004 
1.286108e-004 
1.312110e-004 
1.342405e-004 
1.374660e-004 
1.408539e-004 
1.445008e-004 
1.483217e-004 
1.521042e-004 
1.559529e-004 
1.598652e-004 
1.636981e-004 
1.673530e-004 
1.709930e-004 
1.744881e-004 
1.777625e-004 
1.808164e-004 
1.837905e-004 
1.864734e-004 
1.889332e-004 
1.911781e-004 
1.933070e-004 
1.950897e-004 
1.967399e-004 
1.981781e-004 
1.995039e-004 
2.004957e-004 
2.014715e-004 
2.022077e-004 
2.028729e-004 
2.032358e-004 
2.036749e-004 
2.038211e-004 
2.039614e-004 
2.038369e-004 
2.038401e-004 
2.035517e-004 
2.033456e-004 
2.031477e-004 
2.030547e-004 
1.000000e+000 
1.000000e+000 
1.180431e-004 
1.179468e-004 
1.178293e-004 
1.177922e-004 
1.178694e-004 
1.180215e-004 
1.182205e-004 
1.185612e-004 
1.189971e-004 
1.194835e-004 
1.200385e-004 
1.207232e-004 
1.214466e-004 
1.221922e-004 
1.230301e-004 
1.239566e-004 
1.248740e-004 
1.258314e-004 
1.269026e-004 
1.280094e-004 
1.291008e-004 
1.302860e-004 
1.315796e-004 
1.328620e-004 
1.341721e-004 
1.356246e-004 
1.371407e-004 
1.386277e-004 
1.402138e-004 
1.419430e-004 
1.436663e-004 
1.453862e-004 
1.472615e-004 
1.492140e-004 
1.511018e-004 
1.530444e-004 
1.551358e-004 
1.571888e-004 
1.591609e-004 
1.612352e-004 
1.633622e-004 
1.653323e-004 
1.672489e-004 
1.692479e-004 
1.711322e-004 
1.727892e-004 
1.744256e-004 
1.760254e-004 
1.773360e-004 
1.784201e-004 
1.794655e-004 
1.802826e-004 
1.807107e-004 
1.809595e-004 
1.810701e-004 
1.807770e-004 
1.801175e-004 
1.793170e-004 
1.782342e-004 
1.766947e-004 
1.749131e-004 
1.729849e-004 
1.706866e-004 
1.680510e-004 
1.653275e-004 
1.624385e-004 
1.592468e-004 
1.559610e-004 
1.527125e-004 
1.493472e-004 
1.459115e-004 
1.426374e-004 
1.394986e-004 
1.364095e-004 
1.335441e-004 
1.310185e-004 
1.287358e-004 
1.267341e-004 
1.251716e-004 
1.240293e-004 
1.232433e-004 
1.229076e-004 
1.230706e-004 
1.236537e-004 
1.246470e-004 
1.261044e-004 
1.279777e-004 
1.301979e-004 
1.327644e-004 
1.356617e-004 
1.388094e-004 
1.421629e-004 
1.456977e-004 
1.493646e-004 
1.530948e-004 
1.568584e-004 
1.606149e-004 
1.643243e-004 
1.679389e-004 
1.714419e-004 
1.747990e-004 
1.779971e-004 
1.810037e-004 
1.838218e-004 
1.864324e-004 
1.888452e-004 
1.910357e-004 
1.930312e-004 
1.948187e-004 
1.964220e-004 
1.978186e-004 
1.990572e-004 
2.001144e-004 
2.010226e-004 
2.017588e-004 
2.023831e-004 
2.028491e-004 
2.032012e-004 
2.034173e-004 
2.035527e-004 
2.035511e-004 
2.034768e-004 
2.033441e-004 
2.031545e-004 
2.029355e-004 
2.027628e-004 
1.000000e+000 
1.000000e+000 
1.181206e-004 
1.179254e-004 
1.178589e-004 
1.178236e-004 
1.178924e-004 
1.180359e-004 
1.182795e-004 
1.185806e-004 
1.190054e-004 
1.194947e-004 
1.200462e-004 
1.206671e-004 
1.213780e-004 
1.221234e-004 
1.229139e-004 
1.237776e-004 
1.246938e-004 
1.256329e-004 
1.266264e-004 
1.276924e-004 
1.287888e-004 
1.299238e-004 
1.311317e-004 
1.324052e-004 
1.337074e-004 
1.350758e-004 
1.365252e-004 
1.380295e-004 
1.395735e-004 
1.412022e-004 
1.429018e-004 
1.446447e-004 
1.464359e-004 
1.483071e-004 
1.502243e-004 
1.521681e-004 
1.541505e-004 
1.561840e-004 
1.582250e-004 
1.602585e-004 
1.622963e-004 
1.643361e-004 
1.663238e-004 
1.682454e-004 
1.701190e-004 
1.719239e-004 
1.735894e-004 
1.751180e-004 
1.765376e-004 
1.777912e-004 
1.788047e-004 
1.796256e-004 
1.802698e-004 
1.806318e-004 
1.806835e-004 
1.805232e-004 
1.801076e-004 
1.793179e-004 
1.782288e-004 
1.769381e-004 
1.753198e-004 
1.733304e-004 
1.711478e-004 
1.687815e-004 
1.660780e-004 
1.631515e-004 
1.601874e-004 
1.570659e-004 
1.537320e-004 
1.504373e-004 
1.472380e-004 
1.439619e-004 
1.407449e-004 
1.378261e-004 
1.350825e-004 
1.324428e-004 
1.301782e-004 
1.283461e-004 
1.267475e-004 
1.254971e-004 
1.248145e-004 
1.245426e-004 
1.245763e-004 
1.251335e-004 
1.262257e-004 
1.276169e-004 
1.293696e-004 
1.316277e-004 
1.342074e-004 
1.369655e-004 
1.400537e-004 
1.434356e-004 
1.468849e-004 
1.504136e-004 
1.541293e-004 
1.578558e-004 
1.614736e-004 
1.650854e-004 
1.686862e-004 
1.720834e-004 
1.753094e-004 
1.784496e-004 
1.814151e-004 
1.840970e-004 
1.866249e-004 
1.889984e-004 
1.911254e-004 
1.929999e-004 
1.947632e-004 
1.963262e-004 
1.976635e-004 
1.988236e-004 
1.999038e-004 
2.007654e-004 
2.014758e-004 
2.020679e-004 
2.025910e-004 
2.028979e-004 
2.031393e-004 
2.032836e-004 
2.033624e-004 
2.032432e-004 
2.031441e-004 
2.029847e-004 
2.027721e-004 
2.024401e-004 
1.000000e+000 
1.000000e+000 
1.181657e-004 
1.179336e-004 
1.177913e-004 
1.177784e-004 
1.178300e-004 
1.179737e-004 
1.182446e-004 
1.185569e-004 
1.189308e-004 
1.194213e-004 
1.199956e-004 
1.205751e-004 
1.212308e-004 
1.219931e-004 
1.227706e-004 
1.235537e-004 
1.244422e-004 
1.253988e-004 
1.263289e-004 
1.273137e-004 
1.284205e-004 
1.295421e-004 
1.306494e-004 
1.318805e-004 
1.332099e-004 
1.345130e-004 
1.358651e-004 
1.373811e-004 
1.389310e-004 
1.404547e-004 
1.421070e-004 
1.438971e-004 
1.456479e-004 
1.474215e-004 
1.493656e-004 
1.513540e-004 
1.532623e-004 
1.552613e-004 
1.573895e-004 
1.594376e-004 
1.614159e-004 
1.635128e-004 
1.656068e-004 
1.675196e-004 
1.694010e-004 
1.713364e-004 
1.730906e-004 
1.746243e-004 
1.761376e-004 
1.775446e-004 
1.786240e-004 
1.795004e-004 
1.802936e-004 
1.807883e-004 
1.809062e-004 
1.808522e-004 
1.805865e-004 
1.799011e-004 
1.788969e-004 
1.777236e-004 
1.762229e-004 
1.743271e-004 
1.722310e-004 
1.699502e-004 
1.673400e-004 
1.644992e-004 
1.615818e-004 
1.585113e-004 
1.552664e-004 
1.520156e-004 
1.488071e-004 
1.455829e-004 
1.424358e-004 
1.394845e-004 
1.367154e-004 
1.341482e-004 
1.318864e-004 
1.299653e-004 
1.283834e-004 
1.271898e-004 
1.264217e-004 
1.260791e-004 
1.261773e-004 
1.267169e-004 
1.276834e-004 
1.290788e-004 
1.308820e-004 
1.330364e-004 
1.355296e-004 
1.383443e-004 
1.414024e-004 
1.446478e-004 
1.480833e-004 
1.516441e-004 
1.552424e-004 
1.588655e-004 
1.625059e-004 
1.660687e-004 
1.695166e-004 
1.728692e-004 
1.760926e-004 
1.791096e-004 
1.819500e-004 
1.846267e-004 
1.870941e-004 
1.893252e-004 
1.913883e-004 
1.932622e-004 
1.949202e-004 
1.963814e-004 
1.977113e-004 
1.988534e-004 
1.998245e-004 
2.006579e-004 
2.013908e-004 
2.019496e-004 
2.024017e-004 
2.027561e-004 
2.030206e-004 
2.031294e-004 
2.031896e-004 
2.031724e-004 
2.030657e-004 
2.028333e-004 
2.025001e-004 
2.021475e-004 
1.000000e+000 
1.000000e+000 
1.180086e-004 
1.177637e-004 
1.176375e-004 
1.176400e-004 
1.177058e-004 
1.178515e-004 
1.180834e-004 
1.184290e-004 
1.188279e-004 
1.192829e-004 
1.198234e-004 
1.204389e-004 
1.210783e-004 
1.217703e-004 
1.225385e-004 
1.233437e-004 
1.241642e-004 
1.250502e-004 
1.260011e-004 
1.269694e-004 
1.279728e-004 
1.290609e-004 
1.302021e-004 
1.313627e-004 
1.325933e-004 
1.339191e-004 
1.352845e-004 
1.366874e-004 
1.381922e-004 
1.397832e-004 
1.413995e-004 
1.430785e-004 
1.448725e-004 
1.467202e-004 
1.485803e-004 
1.505244e-004 
1.525632e-004 
1.546000e-004 
1.566388e-004 
1.587628e-004 
1.609144e-004 
1.629923e-004 
1.650632e-004 
1.671779e-004 
1.692043e-004 
1.710888e-004 
1.729494e-004 
1.747506e-004 
1.763236e-004 
1.777153e-004 
1.790383e-004 
1.801433e-004 
1.809111e-004 
1.814982e-004 
1.819248e-004 
1.819704e-004 
1.816625e-004 
1.811954e-004 
1.804391e-004 
1.792255e-004 
1.777565e-004 
1.761338e-004 
1.741220e-004 
1.717422e-004 
1.692731e-004 
1.666307e-004 
1.636295e-004 
1.605123e-004 
1.574543e-004 
1.542319e-004 
1.508706e-004 
1.476984e-004 
1.446661e-004 
1.415889e-004 
1.387184e-004 
1.362473e-004 
1.339592e-004 
1.318695e-004 
1.302818e-004 
1.291356e-004 
1.282382e-004 
1.277918e-004 
1.279327e-004 
1.284319e-004 
1.292647e-004 
1.306445e-004 
1.324682e-004 
1.345306e-004 
1.369505e-004 
1.397886e-004 
1.428152e-004 
1.459720e-004 
1.493879e-004 
1.529522e-004 
1.564790e-004 
1.600399e-004 
1.636690e-004 
1.671896e-004 
1.705499e-004 
1.738567e-004 
1.770416e-004 
1.799798e-004 
1.827344e-004 
1.853655e-004 
1.877623e-004 
1.899055e-004 
1.918944e-004 
1.937193e-004 
1.952943e-004 
1.966856e-004 
1.979579e-004 
1.990586e-004 
1.999592e-004 
2.007567e-004 
2.014528e-004 
2.019950e-004 
2.024031e-004 
2.027581e-004 
2.030083e-004 
2.031347e-004 
2.031722e-004 
2.031618e-004 
2.030077e-004 
2.027908e-004 
2.025039e-004 
2.020495e-004 
1.000000e+000 
1.000000e+000 
1.177703e-004 
1.175845e-004 
1.174275e-004 
1.173775e-004 
1.174696e-004 
1.176644e-004 
1.178820e-004 
1.182098e-004 
1.186400e-004 
1.191032e-004 
1.196023e-004 
1.202154e-004 
1.208737e-004 
1.215258e-004 
1.222467e-004 
1.230616e-004 
1.238657e-004 
1.246810e-004 
1.256055e-004 
1.265808e-004 
1.275276e-004 
1.285500e-004 
1.296948e-004 
1.308408e-004 
1.319958e-004 
1.332940e-004 
1.346807e-004 
1.360435e-004 
1.374925e-004 
1.391070e-004 
1.407444e-004 
1.423802e-004 
1.441747e-004 
1.460879e-004 
1.479659e-004 
1.499031e-004 
1.520129e-004 
1.541400e-004 
1.562128e-004 
1.583967e-004 
1.606769e-004 
1.628618e-004 
1.650082e-004 
1.672493e-004 
1.694364e-004 
1.714481e-004 
1.734312e-004 
1.753972e-004 
1.771443e-004 
1.786834e-004 
1.801509e-004 
1.814275e-004 
1.823750e-004 
1.831076e-004 
1.836633e-004 
1.838764e-004 
1.837385e-004 
1.833729e-004 
1.827157e-004 
1.816674e-004 
1.803181e-004 
1.787235e-004 
1.768017e-004 
1.745659e-004 
1.721147e-004 
1.694475e-004 
1.665507e-004 
1.634981e-004 
1.603444e-004 
1.571070e-004 
1.538399e-004 
1.505959e-004 
1.474183e-004 
1.443788e-004 
1.415179e-004 
1.388544e-004 
1.364743e-004 
1.344411e-004 
1.327274e-004 
1.313761e-004 
1.304890e-004 
1.300338e-004 
1.299593e-004 
1.303590e-004 
1.312521e-004 
1.325156e-004 
1.341552e-004 
1.362482e-004 
1.386816e-004 
1.413451e-004 
1.443072e-004 
1.475427e-004 
1.508779e-004 
1.543001e-004 
1.578665e-004 
1.614500e-004 
1.649355e-004 
1.683956e-004 
1.718123e-004 
1.750424e-004 
1.780866e-004 
1.810277e-004 
1.837774e-004 
1.862641e-004 
1.885713e-004 
1.907293e-004 
1.926344e-004 
1.943146e-004 
1.958600e-004 
1.972386e-004 
1.983856e-004 
1.993975e-004 
2.003094e-004 
2.010601e-004 
2.016458e-004 
2.021750e-004 
2.026078e-004 
2.029020e-004 
2.030962e-004 
2.032623e-004 
2.033040e-004 
2.032479e-004 
2.031108e-004 
2.028777e-004 
2.024469e-004 
2.019606e-004 
1.000000e+000 
1.000000e+000 
1.173965e-004 
1.171641e-004 
1.170875e-004 
1.170928e-004 
1.171576e-004 
1.173444e-004 
1.176209e-004 
1.179463e-004 
1.183404e-004 
1.188383e-004 
1.193706e-004 
1.199250e-004 
1.205580e-004 
1.212590e-004 
1.219531e-004 
1.226810e-004 
1.234974e-004 
1.243427e-004 
1.251769e-004 
1.260875e-004 
1.270867e-004 
1.280873e-004 
1.291144e-004 
1.302649e-004 
1.314836e-004 
1.327001e-004 
1.340071e-004 
1.354581e-004 
1.369407e-004 
1.384484e-004 
1.401089e-004 
1.418889e-004 
1.436649e-004 
1.455197e-004 
1.475526e-004 
1.496347e-004 
1.516969e-004 
1.538923e-004 
1.562217e-004 
1.585012e-004 
1.607712e-004 
1.631855e-004 
1.656080e-004 
1.678857e-004 
1.701758e-004 
1.725351e-004 
1.747210e-004 
1.767086e-004 
1.787058e-004 
1.805994e-004 
1.821501e-004 
1.835077e-004 
1.848056e-004 
1.857765e-004 
1.863299e-004 
1.867308e-004 
1.869249e-004 
1.866223e-004 
1.859666e-004 
1.851805e-004 
1.840181e-004 
1.823546e-004 
1.805063e-004 
1.784971e-004 
1.760368e-004 
1.732745e-004 
1.705037e-004 
1.675285e-004 
1.642280e-004 
1.609456e-004 
1.577608e-004 
1.544172e-004 
1.510682e-004 
1.480201e-004 
1.451165e-004 
1.422550e-004 
1.397508e-004 
1.376773e-004 
1.358090e-004 
1.342705e-004 
1.332995e-004 
1.327402e-004 
1.324886e-004 
1.327645e-004 
1.335776e-004 
1.347130e-004 
1.362277e-004 
1.382458e-004 
1.405978e-004 
1.431659e-004 
1.460616e-004 
1.492411e-004 
1.525130e-004 
1.558839e-004 
1.594065e-004 
1.629395e-004 
1.663841e-004 
1.698056e-004 
1.731708e-004 
1.763520e-004 
1.793581e-004 
1.822417e-004 
1.849261e-004 
1.873615e-004 
1.896129e-004 
1.916904e-004 
1.935281e-004 
1.951520e-004 
1.966235e-004 
1.979192e-004 
1.990134e-004 
1.999670e-004 
2.008058e-004 
2.014987e-004 
2.020556e-004 
2.025331e-004 
2.029181e-004 
2.031915e-004 
2.033778e-004 
2.035117e-004 
2.035413e-004 
2.034624e-004 
2.033013e-004 
2.030770e-004 
2.027136e-004 
2.021581e-004 
1.000000e+000 
1.000000e+000 
1.169578e-004 
1.167503e-004 
1.166424e-004 
1.166798e-004 
1.167768e-004 
1.169564e-004 
1.172566e-004 
1.176219e-004 
1.180079e-004 
1.184867e-004 
1.190478e-004 
1.196137e-004 
1.202071e-004 
1.208948e-004 
1.216085e-004 
1.223078e-004 
1.230743e-004 
1.239207e-004 
1.247537e-004 
1.256106e-004 
1.265777e-004 
1.275932e-004 
1.285996e-004 
1.297023e-004 
1.309268e-004 
1.321689e-004 
1.334543e-004 
1.348967e-004 
1.364317e-004 
1.379807e-004 
1.396481e-004 
1.414830e-004 
1.433616e-004 
1.452876e-004 
1.473831e-004 
1.495956e-004 
1.518130e-004 
1.541217e-004 
1.565829e-004 
1.590686e-004 
1.615398e-004 
1.641070e-004 
1.667293e-004 
1.692757e-004 
1.717866e-004 
1.743221e-004 
1.767671e-004 
1.790514e-004 
1.812451e-004 
1.833261e-004 
1.851785e-004 
1.868016e-004 
1.882351e-004 
1.894119e-004 
1.902710e-004 
1.908372e-004 
1.911094e-004 
1.910428e-004 
1.906243e-004 
1.898647e-004 
1.887717e-004 
1.873487e-004 
1.855830e-004 
1.834926e-004 
1.811421e-004 
1.785388e-004 
1.756572e-004 
1.725856e-004 
1.694177e-004 
1.661080e-004 
1.626806e-004 
1.593066e-004 
1.560117e-004 
1.527223e-004 
1.495816e-004 
1.467434e-004 
1.441107e-004 
1.416876e-004 
1.396958e-004 
1.381336e-004 
1.368594e-004 
1.360168e-004 
1.357448e-004 
1.358679e-004 
1.363433e-004 
1.373652e-004 
1.388631e-004 
1.406299e-004 
1.427676e-004 
1.453540e-004 
1.481594e-004 
1.511043e-004 
1.543332e-004 
1.577382e-004 
1.611057e-004 
1.645108e-004 
1.680091e-004 
1.713944e-004 
1.746013e-004 
1.777629e-004 
1.808085e-004 
1.835769e-004 
1.861514e-004 
1.886128e-004 
1.908262e-004 
1.927570e-004 
1.945459e-004 
1.961772e-004 
1.975411e-004 
1.987168e-004 
1.998055e-004 
2.007220e-004 
2.014357e-004 
2.020701e-004 
2.026391e-004 
2.030476e-004 
2.033448e-004 
2.036246e-004 
2.038169e-004 
2.038718e-004 
2.038778e-004 
2.038544e-004 
2.036852e-004 
2.033664e-004 
2.029442e-004 
2.024564e-004 
1.000000e+000 
1.000000e+000 
1.163266e-004 
1.161763e-004 
1.161105e-004 
1.161568e-004 
1.163123e-004 
1.165298e-004 
1.167966e-004 
1.171818e-004 
1.176364e-004 
1.180972e-004 
1.186145e-004 
1.192317e-004 
1.198519e-004 
1.204652e-004 
1.211653e-004 
1.219276e-004 
1.226519e-004 
1.234130e-004 
1.242898e-004 
1.251834e-004 
1.260531e-004 
1.270385e-004 
1.281394e-004 
1.292245e-004 
1.303568e-004 
1.316729e-004 
1.330656e-004 
1.344482e-004 
1.359799e-004 
1.377098e-004 
1.394584e-004 
1.412536e-004 
1.432818e-004 
1.454504e-004 
1.475949e-004 
1.498752e-004 
1.523977e-004 
1.549431e-004 
1.574619e-004 
1.601838e-004 
1.630456e-004 
1.657946e-004 
1.685506e-004 
1.714890e-004 
1.743646e-004 
1.770293e-004 
1.797329e-004 
1.824704e-004 
1.849139e-004 
1.871237e-004 
1.893449e-004 
1.913502e-004 
1.929051e-004 
1.942684e-004 
1.955169e-004 
1.962998e-004 
1.966271e-004 
1.968088e-004 
1.966778e-004 
1.959659e-004 
1.949366e-004 
1.937499e-004 
1.920897e-004 
1.899513e-004 
1.876850e-004 
1.851993e-004 
1.822525e-004 
1.791099e-004 
1.759792e-004 
1.726138e-004 
1.690270e-004 
1.655629e-004 
1.621816e-004 
1.587023e-004 
1.553703e-004 
1.523746e-004 
1.495319e-004 
1.468710e-004 
1.446606e-004 
1.428589e-004 
1.413339e-004 
1.402585e-004 
1.397324e-004 
1.395995e-004 
1.398647e-004 
1.406631e-004 
1.419120e-004 
1.434943e-004 
1.454767e-004 
1.478554e-004 
1.504886e-004 
1.533424e-004 
1.564416e-004 
1.596884e-004 
1.629882e-004 
1.663456e-004 
1.697229e-004 
1.730249e-004 
1.762248e-004 
1.793235e-004 
1.822653e-004 
1.850098e-004 
1.875694e-004 
1.899343e-004 
1.920742e-004 
1.939982e-004 
1.957256e-004 
1.972490e-004 
1.985725e-004 
1.997236e-004 
2.007136e-004 
2.015477e-004 
2.022462e-004 
2.028296e-004 
2.033025e-004 
2.036793e-004 
2.039713e-004 
2.041875e-004 
2.043280e-004 
2.044015e-004 
2.043954e-004 
2.043087e-004 
2.041267e-004 
2.038746e-004 
2.035045e-004 
2.029520e-004 
1.000000e+000 
1.000000e+000 
1.156188e-004 
1.155370e-004 
1.155114e-004 
1.155586e-004 
1.157254e-004 
1.160062e-004 
1.163109e-004 
1.166781e-004 
1.171453e-004 
1.176580e-004 
1.181708e-004 
1.187542e-004 
1.194014e-004 
1.200426e-004 
1.206986e-004 
1.214366e-004 
1.222011e-004 
1.229564e-004 
1.237766e-004 
1.246827e-004 
1.255994e-004 
1.265556e-004 
1.276297e-004 
1.287824e-004 
1.299656e-004 
1.312609e-004 
1.327008e-004 
1.342120e-004 
1.358055e-004 
1.375692e-004 
1.394714e-004 
1.414514e-004 
1.435703e-004 
1.458735e-004 
1.482868e-004 
1.507913e-004 
1.534562e-004 
1.562664e-004 
1.591426e-004 
1.621000e-004 
1.651774e-004 
1.683164e-004 
1.714543e-004 
1.746127e-004 
1.777934e-004 
1.809228e-004 
1.839498e-004 
1.868893e-004 
1.897276e-004 
1.923833e-004 
1.948081e-004 
1.970311e-004 
1.990335e-004 
2.007133e-004 
2.020491e-004 
2.031094e-004 
2.038441e-004 
2.041385e-004 
2.040530e-004 
2.036746e-004 
2.028839e-004 
2.016210e-004 
2.000555e-004 
1.982108e-004 
1.959216e-004 
1.932788e-004 
1.904917e-004 
1.874483e-004 
1.840560e-004 
1.805767e-004 
1.771081e-004 
1.734480e-004 
1.697090e-004 
1.661889e-004 
1.627743e-004 
1.593441e-004 
1.562074e-004 
1.534824e-004 
1.509258e-004 
1.486445e-004 
1.469404e-004 
1.456576e-004 
1.446385e-004 
1.441635e-004 
1.442932e-004 
1.447361e-004 
1.455562e-004 
1.469761e-004 
1.487812e-004 
1.507835e-004 
1.531857e-004 
1.559749e-004 
1.588514e-004 
1.618395e-004 
1.650865e-004 
1.683801e-004 
1.715504e-004 
1.747520e-004 
1.779689e-004 
1.809652e-004 
1.837679e-004 
1.865141e-004 
1.890635e-004 
1.913027e-004 
1.933778e-004 
1.953211e-004 
1.969780e-004 
1.983880e-004 
1.996940e-004 
2.008296e-004 
2.017129e-004 
2.024736e-004 
2.031711e-004 
2.037008e-004 
2.040761e-004 
2.044294e-004 
2.047205e-004 
2.048711e-004 
2.049570e-004 
2.050464e-004 
2.050335e-004 
2.049105e-004 
2.047432e-004 
2.044977e-004 
2.040527e-004 
2.035281e-004 
1.000000e+000 
1.000000e+000 
1.148124e-004 
1.147174e-004 
1.147742e-004 
1.149215e-004 
1.150884e-004 
1.153602e-004 
1.157416e-004 
1.161466e-004 
1.165728e-004 
1.171124e-004 
1.176942e-004 
1.182459e-004 
1.188533e-004 
1.195596e-004 
1.202377e-004 
1.209006e-004 
1.216767e-004 
1.225119e-004 
1.232935e-004 
1.241454e-004 
1.251512e-004 
1.261674e-004 
1.271781e-004 
1.283708e-004 
1.297084e-004 
1.310316e-004 
1.324631e-004 
1.341517e-004 
1.359281e-004 
1.377223e-004 
1.397574e-004 
1.420400e-004 
1.443412e-004 
1.467512e-004 
1.494793e-004 
1.523506e-004 
1.552011e-004 
1.582633e-004 
1.615985e-004 
1.649123e-004 
1.682141e-004 
1.717644e-004 
1.754033e-004 
1.788636e-004 
1.823471e-004 
1.859845e-004 
1.894436e-004 
1.926397e-004 
1.958643e-004 
1.990114e-004 
2.017434e-004 
2.042181e-004 
2.066374e-004 
2.086903e-004 
2.102267e-004 
2.115538e-004 
2.126434e-004 
2.131556e-004 
2.132159e-004 
2.130796e-004 
2.125038e-004 
2.113340e-004 
2.098750e-004 
2.081686e-004 
2.059382e-004 
2.033042e-004 
2.005347e-004 
1.974729e-004 
1.940179e-004 
1.904512e-004 
1.868470e-004 
1.830291e-004 
1.791284e-004 
1.753708e-004 
1.716696e-004 
1.679985e-004 
1.645765e-004 
1.614544e-004 
1.585468e-004 
1.559674e-004 
1.538366e-004 
1.520947e-004 
1.507524e-004 
1.499098e-004 
1.495448e-004 
1.496130e-004 
1.501568e-004 
1.511594e-004 
1.525536e-004 
1.543351e-004 
1.564757e-004 
1.588900e-004 
1.615465e-004 
1.644192e-004 
1.674133e-004 
1.704731e-004 
1.735921e-004 
1.766963e-004 
1.797065e-004 
1.826290e-004 
1.854417e-004 
1.880648e-004 
1.904900e-004 
1.927507e-004 
1.948017e-004 
1.966098e-004 
1.982253e-004 
1.996652e-004 
2.008846e-004 
2.019119e-004 
2.028065e-004 
2.035527e-004 
2.041326e-004 
2.046122e-004 
2.050142e-004 
2.053052e-004 
2.055027e-004 
2.056664e-004 
2.057665e-004 
2.057824e-004 
2.057425e-004 
2.056611e-004 
2.054767e-004 
2.052153e-004 
2.048869e-004 
2.043968e-004 
1.000000e+000 
1.000000e+000 
1.139192e-004 
1.139069e-004 
1.139552e-004 
1.141431e-004 
1.143943e-004 
1.146830e-004 
1.150588e-004 
1.155257e-004 
1.159973e-004 
1.165025e-004 
1.170912e-004 
1.177143e-004 
1.183167e-004 
1.189722e-004 
1.196976e-004 
1.204200e-004 
1.211469e-004 
1.219660e-004 
1.228444e-004 
1.237272e-004 
1.246824e-004 
1.257687e-004 
1.269160e-004 
1.281195e-004 
1.294752e-004 
1.309857e-004 
1.325765e-004 
1.342990e-004 
1.362344e-004 
1.383298e-004 
1.405372e-004 
1.429449e-004 
1.455863e-004 
1.483708e-004 
1.512913e-004 
1.544428e-004 
1.577940e-004 
1.612376e-004 
1.648106e-004 
1.685857e-004 
1.724602e-004 
1.763366e-004 
1.802972e-004 
1.843619e-004 
1.883627e-004 
1.922531e-004 
1.961519e-004 
1.999891e-004 
2.035678e-004 
2.069425e-004 
2.102251e-004 
2.132304e-004 
2.158148e-004 
2.181540e-004 
2.202676e-004 
2.218880e-004 
2.230319e-004 
2.239327e-004 
2.244406e-004 
2.243292e-004 
2.238270e-004 
2.230773e-004 
2.217827e-004 
2.199264e-004 
2.178595e-004 
2.154978e-004 
2.125642e-004 
2.093310e-004 
2.060533e-004 
2.024348e-004 
1.984453e-004 
1.945166e-004 
1.906170e-004 
1.864539e-004 
1.823261e-004 
1.785366e-004 
1.747944e-004 
1.710692e-004 
1.678006e-004 
1.649504e-004 
1.622259e-004 
1.599057e-004 
1.582412e-004 
1.569243e-004 
1.559107e-004 
1.555510e-004 
1.557410e-004 
1.561865e-004 
1.570886e-004 
1.585798e-004 
1.603405e-004 
1.623006e-004 
1.646849e-004 
1.673431e-004 
1.700108e-004 
1.728148e-004 
1.758163e-004 
1.787480e-004 
1.815494e-004 
1.843825e-004 
1.871374e-004 
1.896268e-004 
1.919583e-004 
1.942053e-004 
1.961988e-004 
1.979140e-004 
1.995031e-004 
2.009309e-004 
2.020802e-004 
2.030506e-004 
2.039374e-004 
2.046476e-004 
2.051603e-004 
2.056106e-004 
2.060014e-004 
2.062453e-004 
2.063987e-004 
2.065565e-004 
2.066452e-004 
2.066236e-004 
2.065752e-004 
2.065226e-004 
2.063536e-004 
2.060615e-004 
2.057068e-004 
2.053058e-004 
1.000000e+000 
1.000000e+000 
1.128644e-004 
1.129585e-004 
1.130914e-004 
1.132851e-004 
1.135955e-004 
1.139672e-004 
1.143339e-004 
1.147956e-004 
1.153481e-004 
1.158827e-004 
1.164254e-004 
1.170828e-004 
1.177593e-004 
1.183863e-004 
1.190873e-004 
1.198946e-004 
1.206615e-004 
1.214356e-004 
1.223663e-004 
1.233668e-004 
1.243322e-004 
1.254320e-004 
1.267354e-004 
1.280685e-004 
1.294573e-004 
1.311135e-004 
1.329551e-004 
1.348245e-004 
1.368982e-004 
1.393042e-004 
1.418275e-004 
1.444391e-004 
1.473885e-004 
1.506208e-004 
1.538957e-004 
1.573581e-004 
1.611875e-004 
1.651441e-004 
1.691002e-004 
1.733128e-004 
1.777659e-004 
1.821458e-004 
1.865215e-004 
1.911155e-004 
1.956949e-004 
2.000402e-004 
2.043821e-004 
2.087638e-004 
2.128467e-004 
2.166261e-004 
2.203487e-004 
2.238361e-004 
2.268301e-004 
2.295254e-004 
2.320215e-004 
2.340235e-004 
2.354919e-004 
2.366717e-004 
2.374591e-004 
2.376329e-004 
2.373574e-004 
2.367590e-004 
2.356350e-004 
2.339679e-004 
2.319715e-004 
2.296075e-004 
2.267541e-004 
2.235593e-004 
2.201342e-004 
2.163895e-004 
2.123714e-004 
2.082349e-004 
2.039813e-004 
1.996148e-004 
1.952630e-004 
1.909808e-004 
1.867809e-004 
1.827659e-004 
1.789950e-004 
1.754740e-004 
1.723004e-004 
1.695364e-004 
1.671437e-004 
1.651871e-004 
1.637587e-004 
1.627832e-004 
1.622350e-004 
1.622244e-004 
1.627009e-004 
1.635287e-004 
1.647705e-004 
1.664524e-004 
1.683922e-004 
1.705374e-004 
1.729731e-004 
1.755778e-004 
1.781886e-004 
1.808687e-004 
1.836218e-004 
1.862642e-004 
1.887659e-004 
1.912233e-004 
1.935430e-004 
1.956070e-004 
1.975058e-004 
1.992817e-004 
2.008107e-004 
2.020981e-004 
2.032661e-004 
2.042781e-004 
2.050546e-004 
2.056959e-004 
2.062715e-004 
2.066977e-004 
2.069762e-004 
2.072277e-004 
2.074323e-004 
2.075154e-004 
2.075458e-004 
2.075914e-004 
2.075591e-004 
2.074221e-004 
2.072693e-004 
2.070976e-004 
2.067926e-004 
2.063451e-004 
1.000000e+000 
1.000000e+000 
1.117778e-004 
1.119304e-004 
1.121532e-004 
1.124067e-004 
1.127137e-004 
1.131362e-004 
1.135933e-004 
1.140512e-004 
1.145793e-004 
1.151934e-004 