# vtk DataFile Version 2.0
2D-ADE data file 
ASCII
DATASET RECTILINEAR_GRID
DIMENSIONS 128 128 1
X_COORDINATES 128 int
0 1 2 3 4 5 6 7 8 9 10 11 12 13 14 15 16 17 18 19 20 21 22 23 24 25 26 27 28 29 30 31 32 33 34 35 36 37 38 39 40 41 42 43 44 45 46 47 48 49 50 51 52 53 54 55 56 57 58 59 60 61 62 63 64 65 66 67 68 69 70 71 72 73 74 75 76 77 78 79 80 81 82 83 84 85 86 87 88 89 90 91 92 93 94 95 96 97 98 99 100 101 102 103 104 105 106 107 108 109 110 111 112 113 114 115 116 117 118 119 120 121 122 123 124 125 126 127 
Y_COORDINATES 128 int
0 1 2 3 4 5 6 7 8 9 10 11 12 13 14 15 16 17 18 19 20 21 22 23 24 25 26 27 28 29 30 31 32 33 34 35 36 37 38 39 40 41 42 43 44 45 46 47 48 49 50 51 52 53 54 55 56 57 58 59 60 61 62 63 64 65 66 67 68 69 70 71 72 73 74 75 76 77 78 79 80 81 82 83 84 85 86 87 88 89 90 91 92 93 94 95 96 97 98 99 100 101 102 103 104 105 106 107 108 109 110 111 112 113 114 115 116 117 118 119 120 121 122 123 124 125 126 127 
Z_COORDINATES 1 int
0
POINT_DATA 16384 
SCALARS density double 1
LOOKUP_TABLE default
1.000000e+000 
1.000000e+000 
1.000000e+000 
1.000000e+000 
1.000000e+000 
1.000000e+000 
1.000000e+000 
1.000000e+000 
1.000000e+000 
1.000000e+000 
1.000000e+000 
1.000000e+000 
1.000000e+000 
1.000000e+000 
1.000000e+000 
1.000000e+000 
1.000000e+000 
1.000000e+000 
1.000000e+000 
1.000000e+000 
1.000000e+000 
1.000000e+000 
1.000000e+000 
1.000000e+000 
1.000000e+000 
1.000000e+000 
1.000000e+000 
1.000000e+000 
1.000000e+000 
1.000000e+000 
1.000000e+000 
1.000000e+000 
1.000000e+000 
1.000000e+000 
1.000000e+000 
1.000000e+000 
1.000000e+000 
1.000000e+000 
1.000000e+000 
1.000000e+000 
1.000000e+000 
1.000000e+000 
1.000000e+000 
1.000000e+000 
1.000000e+000 
1.000000e+000 
1.000000e+000 
1.000000e+000 
1.000000e+000 
1.000000e+000 
1.000000e+000 
1.000000e+000 
1.000000e+000 
1.000000e+000 
1.000000e+000 
1.000000e+000 
1.000000e+000 
1.000000e+000 
1.000000e+000 
1.000000e+000 
1.000000e+000 
1.000000e+000 
1.000000e+000 
1.000000e+000 
1.000000e+000 
1.000000e+000 
1.000000e+000 
1.000000e+000 
1.000000e+000 
1.000000e+000 
1.000000e+000 
1.000000e+000 
1.000000e+000 
1.000000e+000 
1.000000e+000 
1.000000e+000 
1.000000e+000 
1.000000e+000 
1.000000e+000 
1.000000e+000 
1.000000e+000 
1.000000e+000 
1.000000e+000 
1.000000e+000 
1.000000e+000 
1.000000e+000 
1.000000e+000 
1.000000e+000 
1.000000e+000 
1.000000e+000 
1.000000e+000 
1.000000e+000 
1.000000e+000 
1.000000e+000 
1.000000e+000 
1.000000e+000 
1.000000e+000 
1.000000e+000 
1.000000e+000 
1.000000e+000 
1.000000e+000 
1.000000e+000 
1.000000e+000 
1.000000e+000 
1.000000e+000 
1.000000e+000 
1.000000e+000 
1.000000e+000 
1.000000e+000 
1.000000e+000 
1.000000e+000 
1.000000e+000 
1.000000e+000 
1.000000e+000 
1.000000e+000 
1.000000e+000 
1.000000e+000 
1.000000e+000 
1.000000e+000 
1.000000e+000 
1.000000e+000 
1.000000e+000 
1.000000e+000 
1.000000e+000 
1.000000e+000 
1.000000e+000 
1.000000e+000 
1.000000e+000 
1.000000e+000 
1.205481e-004 
1.204612e-004 
1.203457e-004 
1.202869e-004 
1.202588e-004 
1.204089e-004 
1.206415e-004 
1.209763e-004 
1.213679e-004 
1.219112e-004 
1.225061e-004 
1.231518e-004 
1.238716e-004 
1.246922e-004 
1.255233e-004 
1.263891e-004 
1.273485e-004 
1.283572e-004 
1.293609e-004 
1.304262e-004 
1.315924e-004 
1.327645e-004 
1.339544e-004 
1.352478e-004 
1.366215e-004 
1.379765e-004 
1.394016e-004 
1.409491e-004 
1.425278e-004 
1.440936e-004 
1.457830e-004 
1.475635e-004 
1.493180e-004 
1.510957e-004 
1.530137e-004 
1.549392e-004 
1.568018e-004 
1.587318e-004 
1.607498e-004 
1.626652e-004 
1.645181e-004 
1.664478e-004 
1.683376e-004 
1.700327e-004 
1.716906e-004 
1.733577e-004 
1.748168e-004 
1.760467e-004 
1.772477e-004 
1.783052e-004 
1.790174e-004 
1.795293e-004 
1.799577e-004 
1.800566e-004 
1.797741e-004 
1.793460e-004 
1.787102e-004 
1.776253e-004 
1.762461e-004 
1.747468e-004 
1.729097e-004 
1.706607e-004 
1.682786e-004 
1.657562e-004 
1.628698e-004 
1.597760e-004 
1.567014e-004 
1.534750e-004 
1.500372e-004 
1.466744e-004 
1.434280e-004 
1.401130e-004 
1.368805e-004 
1.339563e-004 
1.312150e-004 
1.286079e-004 
1.263777e-004 
1.245674e-004 
1.230207e-004 
1.218439e-004 
1.211977e-004 
1.209712e-004 
1.210941e-004 
1.217186e-004 
1.228402e-004 
1.243133e-004 
1.261609e-004 
1.284640e-004 
1.310962e-004 
1.339714e-004 
1.371381e-004 
1.405725e-004 
1.441244e-004 
1.477871e-004 
1.515716e-004 
1.553969e-004 
1.591589e-004 
1.629018e-004 
1.665818e-004 
1.701298e-004 
1.735024e-004 
1.767595e-004 
1.798193e-004 
1.826712e-004 
1.853047e-004 
1.877775e-004 
1.899943e-004 
1.920143e-004 
1.938172e-004 
1.954631e-004 
1.968547e-004 
1.981075e-004 
1.991572e-004 
2.000852e-004 
2.007824e-004 
2.014039e-004 
2.018256e-004 
2.021668e-004 
2.022908e-004 
2.023850e-004 
2.022815e-004 
2.021392e-004 
2.018147e-004 
2.015286e-004 
2.012673e-004 
2.011470e-004 
1.000000e+000 
1.000000e+000 
1.206235e-004 
1.205341e-004 
1.204385e-004 
1.204704e-004 
1.204556e-004 
1.206140e-004 
1.208157e-004 
1.211783e-004 
1.215356e-004 
1.220451e-004 
1.226087e-004 
1.232489e-004 
1.239141e-004 
1.246925e-004 
1.255058e-004 
1.263446e-004 
1.272464e-004 
1.282234e-004 
1.292160e-004 
1.302356e-004 
1.313506e-004 
1.325027e-004 
1.336739e-004 
1.349053e-004 
1.362378e-004 
1.375762e-004 
1.389629e-004 
1.404377e-004 
1.419864e-004 
1.435289e-004 
1.451557e-004 
1.468635e-004 
1.486003e-004 
1.503395e-004 
1.521754e-004 
1.540440e-004 
1.559013e-004 
1.577714e-004 
1.597033e-004 
1.615972e-004 
1.634505e-004 
1.652983e-004 
1.671281e-004 
1.688504e-004 
1.704985e-004 
1.720780e-004 
1.735418e-004 
1.748396e-004 
1.760051e-004 
1.770108e-004 
1.778183e-004 
1.784036e-004 
1.787789e-004 
1.789183e-004 
1.788056e-004 
1.784144e-004 
1.777562e-004 
1.768379e-004 
1.756386e-004 
1.741315e-004 
1.723736e-004 
1.703855e-004 
1.681176e-004 
1.655945e-004 
1.629252e-004 
1.600873e-004 
1.570369e-004 
1.538982e-004 
1.507629e-004 
1.475455e-004 
1.442901e-004 
1.411836e-004 
1.382104e-004 
1.352916e-004 
1.325957e-004 
1.302474e-004 
1.281182e-004 
1.262401e-004 
1.248202e-004 
1.238182e-004 
1.230996e-004 
1.228257e-004 
1.230867e-004 
1.237093e-004 
1.246690e-004 
1.261469e-004 
1.280380e-004 
1.301793e-004 
1.326610e-004 
1.355494e-004 
1.386153e-004 
1.418268e-004 
1.452847e-004 
1.489079e-004 
1.524876e-004 
1.561300e-004 
1.598379e-004 
1.634699e-004 
1.669304e-004 
1.703832e-004 
1.737027e-004 
1.768122e-004 
1.797139e-004 
1.825480e-004 
1.851062e-004 
1.874524e-004 
1.895981e-004 
1.916392e-004 
1.933479e-004 
1.949322e-004 
1.963176e-004 
1.975973e-004 
1.985539e-004 
1.994983e-004 
2.002139e-004 
2.008600e-004 
2.012132e-004 
2.016423e-004 
2.017883e-004 
2.019261e-004 
2.018085e-004 
2.018156e-004 
2.015392e-004 
2.013407e-004 
2.011512e-004 
2.010630e-004 
1.000000e+000 
1.000000e+000 
1.207272e-004 
1.206432e-004 
1.205390e-004 
1.205100e-004 
1.205906e-004 
1.207404e-004 
1.209297e-004 
1.212505e-004 
1.216617e-004 
1.221145e-004 
1.226292e-004 
1.232671e-004 
1.239407e-004 
1.246300e-004 
1.254081e-004 
1.262721e-004 
1.271245e-004 
1.280118e-004 
1.290109e-004 
1.300430e-004 
1.310554e-004 
1.321561e-004 
1.333625e-004 
1.345523e-004 
1.357631e-004 
1.371103e-004 
1.385161e-004 
1.398848e-004 
1.413447e-004 
1.429415e-004 
1.445256e-004 
1.460975e-004 
1.478177e-004 
1.496093e-004 
1.513290e-004 
1.530964e-004 
1.550077e-004 
1.568764e-004 
1.586590e-004 
1.605407e-004 
1.624739e-004 
1.642494e-004 
1.659711e-004 
1.677779e-004 
1.694741e-004 
1.709480e-004 
1.724083e-004 
1.738417e-004 
1.749969e-004 
1.759381e-004 
1.768556e-004 
1.775616e-004 
1.778970e-004 
1.780730e-004 
1.781324e-004 
1.778110e-004 
1.771471e-004 
1.763671e-004 
1.753300e-004 
1.738619e-004 
1.721771e-004 
1.703708e-004 
1.682188e-004 
1.657524e-004 
1.632197e-004 
1.605410e-004 
1.575769e-004 
1.545334e-004 
1.515389e-004 
1.484362e-004 
1.452677e-004 
1.422623e-004 
1.393901e-004 
1.365609e-004 
1.339452e-004 
1.316559e-004 
1.295921e-004 
1.277880e-004 
1.263998e-004 
1.254061e-004 
1.247396e-004 
1.244933e-004 
1.247156e-004 
1.253264e-004 
1.263155e-004 
1.277390e-004 
1.295498e-004 
1.316794e-004 
1.341306e-004 
1.368914e-004 
1.398833e-004 
1.430647e-004 
1.464159e-004 
1.498907e-004 
1.534229e-004 
1.569864e-004 
1.605445e-004 
1.640588e-004 
1.674843e-004 
1.708067e-004 
1.739936e-004 
1.770319e-004 
1.798911e-004 
1.825749e-004 
1.850641e-004 
1.873677e-004 
1.894623e-004 
1.913737e-004 
1.930886e-004 
1.946292e-004 
1.959738e-004 
1.971685e-004 
1.981899e-004 
1.990690e-004 
1.997831e-004 
2.003898e-004 
2.008437e-004 
2.011875e-004 
2.013999e-004 
2.015340e-004 
2.015350e-004 
2.014656e-004 
2.013395e-004 
2.011580e-004 
2.009473e-004 
2.007812e-004 
1.000000e+000 
1.000000e+000 
1.207885e-004 
1.206137e-004 
1.205592e-004 
1.205331e-004 
1.206033e-004 
1.207457e-004 
1.209768e-004 
1.212603e-004 
1.216579e-004 
1.221162e-004 
1.226278e-004 
1.232049e-004 
1.238660e-004 
1.245595e-004 
1.252923e-004 
1.260961e-004 
1.269494e-004 
1.278235e-004 
1.287468e-004 
1.297407e-004 
1.307616e-004 
1.318164e-004 
1.329384e-004 
1.341226e-004 
1.353295e-004 
1.365955e-004 
1.379360e-004 
1.393260e-004 
1.407475e-004 
1.422454e-004 
1.438079e-004 
1.454067e-004 
1.470450e-004 
1.487561e-004 
1.505077e-004 
1.522787e-004 
1.540811e-004 
1.559304e-004 
1.577834e-004 
1.596239e-004 
1.614661e-004 
1.633102e-004 
1.651020e-004 
1.668283e-004 
1.685103e-004 
1.701293e-004 
1.716147e-004 
1.729716e-004 
1.742309e-004 
1.753366e-004 
1.762160e-004 
1.769195e-004 
1.774649e-004 
1.777475e-004 
1.777411e-004 
1.775458e-004 
1.771191e-004 
1.763428e-004 
1.752929e-004 
1.740672e-004 
1.725393e-004 
1.706657e-004 
1.686236e-004 
1.664209e-004 
1.639028e-004 
1.611821e-004 
1.584412e-004 
1.555578e-004 
1.524745e-004 
1.494392e-004 
1.465045e-004 
1.434951e-004 
1.405428e-004 
1.378826e-004 
1.353878e-004 
1.329840e-004 
1.309378e-004 
1.293038e-004 
1.278802e-004 
1.267787e-004 
1.262165e-004 
1.260359e-004 
1.261301e-004 
1.267162e-004 
1.278065e-004 
1.291661e-004 
1.308575e-004 
1.330272e-004 
1.354948e-004 
1.381186e-004 
1.410530e-004 
1.442665e-004 
1.475357e-004 
1.508749e-004 
1.543962e-004 
1.579274e-004 
1.613504e-004 
1.647710e-004 
1.681877e-004 
1.714095e-004 
1.744689e-004 
1.774545e-004 
1.802779e-004 
1.828299e-004 
1.852400e-004 
1.875096e-004 
1.895445e-004 
1.913385e-004 
1.930319e-004 
1.945365e-004 
1.958235e-004 
1.969421e-004 
1.979880e-004 
1.988230e-004 
1.995110e-004 
2.000871e-004 
2.005977e-004 
2.008971e-004 
2.011327e-004 
2.012764e-004 
2.013557e-004 
2.012413e-004 
2.011472e-004 
2.009961e-004 
2.007914e-004 
2.004706e-004 
1.000000e+000 
1.000000e+000 
1.208187e-004 
1.206092e-004 
1.204869e-004 
1.204856e-004 
1.205393e-004 
1.206777e-004 
1.209365e-004 
1.212318e-004 
1.215786e-004 
1.220366e-004 
1.225732e-004 
1.231106e-004 
1.237174e-004 
1.244289e-004 
1.251528e-004 
1.258786e-004 
1.267059e-004 
1.276006e-004 
1.284653e-004 
1.293802e-004 
1.304139e-004 
1.314596e-004 
1.324850e-004 
1.336283e-004 
1.348656e-004 
1.360705e-004 
1.373162e-004 
1.387191e-004 
1.401499e-004 
1.415459e-004 
1.430619e-004 
1.447089e-004 
1.463094e-004 
1.479237e-004 
1.497011e-004 
1.515170e-004 
1.532458e-004 
1.550583e-004 
1.569955e-004 
1.588490e-004 
1.606288e-004 
1.625248e-004 
1.644181e-004 
1.661312e-004 
1.678148e-004 
1.695569e-004 
1.711246e-004 
1.724796e-004 
1.738242e-004 
1.750750e-004 
1.760126e-004 
1.767632e-004 
1.774485e-004 
1.778556e-004 
1.779074e-004 
1.778101e-004 
1.775253e-004 
1.768462e-004 
1.758739e-004 
1.747586e-004 
1.733421e-004 
1.715564e-004 
1.695954e-004 
1.674737e-004 
1.650450e-004 
1.624060e-004 
1.597091e-004 
1.568747e-004 
1.538784e-004 
1.508858e-004 
1.479418e-004 
1.449843e-004 
1.421020e-004 
1.394107e-004 
1.368925e-004 
1.345626e-004 
1.325216e-004 
1.308019e-004 
1.293978e-004 
1.283557e-004 
1.277120e-004 
1.274642e-004 
1.276256e-004 
1.281976e-004 
1.291660e-004 
1.305323e-004 
1.322771e-004 
1.343468e-004 
1.367306e-004 
1.394130e-004 
1.423207e-004 
1.454007e-004 
1.486581e-004 
1.520323e-004 
1.554399e-004 
1.588703e-004 
1.623188e-004 
1.656946e-004 
1.689623e-004 
1.721427e-004 
1.752042e-004 
1.780713e-004 
1.807736e-004 
1.833247e-004 
1.856796e-004 
1.878111e-004 
1.897862e-004 
1.915838e-004 
1.931766e-004 
1.945824e-004 
1.958654e-004 
1.969692e-004 
1.979090e-004 
1.987172e-004 
1.994299e-004 
1.999740e-004 
2.004147e-004 
2.007616e-004 
2.010211e-004 
2.011287e-004 
2.011894e-004 
2.011753e-004 
2.010736e-004 
2.008498e-004 
2.005301e-004 
2.001913e-004 
1.000000e+000 
1.000000e+000 
1.206599e-004 
1.204446e-004 
1.203358e-004 
1.203472e-004 
1.204178e-004 
1.205589e-004 
1.207783e-004 
1.211037e-004 
1.214769e-004 
1.218991e-004 
1.224014e-004 
1.229748e-004 
1.235684e-004 
1.242101e-004 
1.249260e-004 
1.256770e-004 
1.264401e-004 
1.272654e-004 
1.281543e-004 
1.290573e-004 
1.299905e-004 
1.310047e-004 
1.320684e-004 
1.331451e-004 
1.342851e-004 
1.355152e-004 
1.367781e-004 
1.380695e-004 
1.394555e-004 
1.409210e-004 
1.424026e-004 
1.439375e-004 
1.455804e-004 
1.472691e-004 
1.489605e-004 
1.507283e-004 
1.525848e-004 
1.544319e-004 
1.562739e-004 
1.581970e-004 
1.601444e-004 
1.620142e-004 
1.638754e-004 
1.657818e-004 
1.676016e-004 
1.692825e-004 
1.709459e-004 
1.725583e-004 
1.739518e-004 
1.751760e-004 
1.763464e-004 
1.773148e-004 
1.779641e-004 
1.784533e-004 
1.788040e-004 
1.787968e-004 
1.784610e-004 
1.779919e-004 
1.772598e-004 
1.760972e-004 
1.747064e-004 
1.731882e-004 
1.713065e-004 
1.690819e-004 
1.667913e-004 
1.643483e-004 
1.615659e-004 
1.586840e-004 
1.558747e-004 
1.529112e-004 
1.498159e-004 
1.469125e-004 
1.441482e-004 
1.413346e-004 
1.387189e-004 
1.364899e-004 
1.344281e-004 
1.325449e-004 
1.311406e-004 
1.301526e-004 
1.293856e-004 
1.290393e-004 
1.292499e-004 
1.297878e-004 
1.306273e-004 
1.319831e-004 
1.337542e-004 
1.357363e-004 
1.380500e-004 
1.407603e-004 
1.436406e-004 
1.466344e-004 
1.498751e-004 
1.532567e-004 
1.565954e-004 
1.599657e-004 
1.634067e-004 
1.667438e-004 
1.699265e-004 
1.730646e-004 
1.760923e-004 
1.788843e-004 
1.815046e-004 
1.840150e-004 
1.863045e-004 
1.883520e-004 
1.902576e-004 
1.920114e-004 
1.935256e-004 
1.948651e-004 
1.960952e-004 
1.971615e-004 
1.980338e-004 
1.988087e-004 
1.994881e-004 
2.000170e-004 
2.004153e-004 
2.007638e-004 
2.010106e-004 
2.011350e-004 
2.011733e-004 
2.011665e-004 
2.010193e-004 
2.008097e-004 
2.005341e-004 
2.000981e-004 
1.000000e+000 
1.000000e+000 
1.204244e-004 
1.202674e-004 
1.201344e-004 
1.200962e-004 
1.201910e-004 
1.203802e-004 
1.205849e-004 
1.208908e-004 
1.212944e-004 
1.217250e-004 
1.221856e-004 
1.227557e-004 
1.233697e-004 
1.239737e-004 
1.246431e-004 
1.254052e-004 
1.261558e-004 
1.269136e-004 
1.277777e-004 
1.286911e-004 
1.295724e-004 
1.305232e-004 
1.315923e-004 
1.326584e-004 
1.337259e-004 
1.349288e-004 
1.362145e-004 
1.374685e-004 
1.387986e-004 
1.402859e-004 
1.417887e-004 
1.432797e-004 
1.449192e-004 
1.466692e-004 
1.483757e-004 
1.501312e-004 
1.520507e-004 
1.539811e-004 
1.558499e-004 
1.578225e-004 
1.598872e-004 
1.618538e-004 
1.637789e-004 
1.657980e-004 
1.677654e-004 
1.695609e-004 
1.713327e-004 
1.730951e-004 
1.746494e-004 
1.760077e-004 
1.773085e-004 
1.784354e-004 
1.792524e-004 
1.798750e-004 
1.803432e-004 
1.804932e-004 
1.803178e-004 
1.799410e-004 
1.793001e-004 
1.782958e-004 
1.770182e-004 
1.755229e-004 
1.737271e-004 
1.716428e-004 
1.693673e-004 
1.668984e-004 
1.642196e-004 
1.614024e-004 
1.584988e-004 
1.555227e-004 
1.525242e-004 
1.495530e-004 
1.466487e-004 
1.438781e-004 
1.412782e-004 
1.388645e-004 
1.367184e-004 
1.348995e-004 
1.333783e-004 
1.321944e-004 
1.314463e-004 
1.311006e-004 
1.311055e-004 
1.315525e-004 
1.324608e-004 
1.337092e-004 
1.353040e-004 
1.373233e-004 
1.396579e-004 
1.422002e-004 
1.450206e-004 
1.480982e-004 
1.512637e-004 
1.545070e-004 
1.578885e-004 
1.612859e-004 
1.645870e-004 
1.678662e-004 
1.711091e-004 
1.741749e-004 
1.770651e-004 
1.798636e-004 
1.824840e-004 
1.848545e-004 
1.870581e-004 
1.891253e-004 
1.909526e-004 
1.925660e-004 
1.940551e-004 
1.953872e-004 
1.964964e-004 
1.974774e-004 
1.983651e-004 
1.990972e-004 
1.996687e-004 
2.001872e-004 
2.006129e-004 
2.009021e-004 
2.010938e-004 
2.012592e-004 
2.013028e-004 
2.012494e-004 
2.011186e-004 
2.008957e-004 
2.004804e-004 
2.000113e-004 
1.000000e+000 
1.000000e+000 
1.200691e-004 
1.198683e-004 
1.198117e-004 
1.198282e-004 
1.198954e-004 
1.200754e-004 
1.203381e-004 
1.206414e-004 
1.210062e-004 
1.214698e-004 
1.219643e-004 
1.224761e-004 
1.230632e-004 
1.237174e-004 
1.243630e-004 
1.250391e-004 
1.258029e-004 
1.265948e-004 
1.273719e-004 
1.282218e-004 
1.291582e-004 
1.300917e-004 
1.310448e-004 
1.321159e-004 
1.332500e-004 
1.343731e-004 
1.355777e-004 
1.369192e-004 
1.382834e-004 
1.396613e-004 
1.411825e-004 
1.428143e-004 
1.444309e-004 
1.461147e-004 
1.479677e-004 
1.498603e-004 
1.517220e-004 
1.537079e-004 
1.558211e-004 
1.578766e-004 
1.599159e-004 
1.620957e-004 
1.642816e-004 
1.663207e-004 
1.683734e-004 
1.704993e-004 
1.724570e-004 
1.742239e-004 
1.760110e-004 
1.777076e-004 
1.790759e-004 
1.802687e-004 
1.814217e-004 
1.822692e-004 
1.827227e-004 
1.830491e-004 
1.831952e-004 
1.828720e-004 
1.822243e-004 
1.814750e-004 
1.803780e-004 
1.788085e-004 
1.770822e-004 
1.752215e-004 
1.729349e-004 
1.703698e-004 
1.678172e-004 
1.650786e-004 
1.620305e-004 
1.590128e-004 
1.561014e-004 
1.530364e-004 
1.499670e-004 
1.471958e-004 
1.445624e-004 
1.419601e-004 
1.397002e-004 
1.378529e-004 
1.361893e-004 
1.348299e-004 
1.340110e-004 
1.335749e-004 
1.334151e-004 
1.337507e-004 
1.345923e-004 
1.357247e-004 
1.372051e-004 
1.391608e-004 
1.414246e-004 
1.438799e-004 
1.466421e-004 
1.496722e-004 
1.527810e-004 
1.559781e-004 
1.593219e-004 
1.626743e-004 
1.659382e-004 
1.691829e-004 
1.723791e-004 
1.753998e-004 
1.782551e-004 
1.810007e-004 
1.835603e-004 
1.858832e-004 
1.880353e-004 
1.900273e-004 
1.917918e-004 
1.933532e-004 
1.947735e-004 
1.960278e-004 
1.970884e-004 
1.980154e-004 
1.988346e-004 
1.995128e-004 
2.000586e-004 
2.005285e-004 
2.009093e-004 
2.011799e-004 
2.013649e-004 
2.014996e-004 
2.015320e-004 
2.014573e-004 
2.013030e-004 
2.010881e-004 
2.007378e-004 
2.002016e-004 
1.000000e+000 
1.000000e+000 
1.196540e-004 
1.194770e-004 
1.193919e-004 
1.194413e-004 
1.195399e-004 
1.197104e-004 
1.199937e-004 
1.203360e-004 
1.206918e-004 
1.211341e-004 
1.216558e-004 
1.221797e-004 
1.227272e-004 
1.233676e-004 
1.240342e-004 
1.246845e-004 
1.253993e-004 
1.261936e-004 
1.269731e-004 
1.277719e-004 
1.286768e-004 
1.296271e-004 
1.305626e-004 
1.315859e-004 
1.327247e-004 
1.338742e-004 
1.350566e-004 
1.363853e-004 
1.377980e-004 
1.392142e-004 
1.407356e-004 
1.424133e-004 
1.441246e-004 
1.458705e-004 
1.477728e-004 
1.497819e-004 
1.517857e-004 
1.538690e-004 
1.560953e-004 
1.583392e-004 
1.605616e-004 
1.628736e-004 
1.652381e-004 
1.675262e-004 
1.697790e-004 
1.720592e-004 
1.742558e-004 
1.763001e-004 
1.782638e-004 
1.801288e-004 
1.817817e-004 
1.832234e-004 
1.844959e-004 
1.855351e-004 
1.862813e-004 
1.867606e-004 
1.869738e-004 
1.868772e-004 
1.864579e-004 
1.857275e-004 
1.846939e-004 
1.833597e-004 
1.817116e-004 
1.797670e-004 
1.775887e-004 
1.751816e-004 
1.725188e-004 
1.696860e-004 
1.667733e-004 
1.637323e-004 
1.605842e-004 
1.574957e-004 
1.544886e-004 
1.514858e-004 
1.486264e-004 
1.460593e-004 
1.436843e-004 
1.415021e-004 
1.397297e-004 
1.383629e-004 
1.372579e-004 
1.365552e-004 
1.363918e-004 
1.365924e-004 
1.371133e-004 
1.381480e-004 
1.396280e-004 
1.413481e-004 
1.434110e-004 
1.458978e-004 
1.485828e-004 
1.513890e-004 
1.544639e-004 
1.577050e-004 
1.609020e-004 
1.641325e-004 
1.674565e-004 
1.706718e-004 
1.737141e-004 
1.767191e-004 
1.796194e-004 
1.822543e-004 
1.847073e-004 
1.870606e-004 
1.891800e-004 
1.910292e-004 
1.927485e-004 
1.943227e-004 
1.956403e-004 
1.967783e-004 
1.978380e-004 
1.987333e-004 
1.994310e-004 
2.000541e-004 
2.006162e-004 
2.010208e-004 
2.013157e-004 
2.015952e-004 
2.017890e-004 
2.018460e-004 
2.018551e-004 
2.018367e-004 
2.016747e-004 
2.013659e-004 
2.009595e-004 
2.004901e-004 
1.000000e+000 
1.000000e+000 
1.190612e-004 
1.189439e-004 
1.188974e-004 
1.189511e-004 
1.191068e-004 
1.193152e-004 
1.195630e-004 
1.199211e-004 
1.203443e-004 
1.207681e-004 
1.212434e-004 
1.218167e-004 
1.223926e-004 
1.229587e-004 
1.236103e-004 
1.243252e-004 
1.250010e-004 
1.257100e-004 
1.265336e-004 
1.273723e-004 
1.281814e-004 
1.291002e-004 
1.301304e-004 
1.311374e-004 
1.321815e-004 
1.334006e-004 
1.346881e-004 
1.359528e-004 
1.373539e-004 
1.389426e-004 
1.405374e-004 
1.421637e-004 
1.440099e-004 
1.459844e-004 
1.479206e-004 
1.499782e-004 
1.522670e-004 
1.545674e-004 
1.568294e-004 
1.592853e-004 
1.618747e-004 
1.643451e-004 
1.668182e-004 
1.694731e-004 
1.720668e-004 
1.744526e-004 
1.768839e-004 
1.793587e-004 
1.815513e-004 
1.835246e-004 
1.855268e-004 
1.873329e-004 
1.887106e-004 
1.899209e-004 
1.910425e-004 
1.917260e-004 
1.919831e-004 
1.921247e-004 
1.919841e-004 
1.912940e-004 
1.903175e-004 
1.892144e-004 
1.876678e-004 
1.856721e-004 
1.835761e-004 
1.812863e-004 
1.785591e-004 
1.756571e-004 
1.727853e-004 
1.696939e-004 
1.663926e-004 
1.632221e-004 
1.601386e-004 
1.569573e-004 
1.539190e-004 
1.512094e-004 
1.486410e-004 
1.462377e-004 
1.442656e-004 
1.426798e-004 
1.413443e-004 
1.404296e-004 
1.400347e-004 
1.400016e-004 
1.403333e-004 
1.411662e-004 
1.424188e-004 
1.439738e-004 
1.459000e-004 
1.481977e-004 
1.507270e-004 
1.534563e-004 
1.564157e-004 
1.595115e-004 
1.626510e-004 
1.658433e-004 
1.690556e-004 
1.721948e-004 
1.752361e-004 
1.781847e-004 
1.809868e-004 
1.836020e-004 
1.860445e-004 
1.883063e-004 
1.903561e-004 
1.922023e-004 
1.938649e-004 
1.953356e-004 
1.966164e-004 
1.977342e-004 
1.986999e-004 
1.995166e-004 
2.002030e-004 
2.007790e-004 
2.012488e-004 
2.016246e-004 
2.019173e-004 
2.021358e-004 
2.022797e-004 
2.023567e-004 
2.023551e-004 
2.022745e-004 
2.021004e-004 
2.018569e-004 
2.014990e-004 
2.009654e-004 
1.000000e+000 
1.000000e+000 
1.184008e-004 
1.183477e-004 
1.183432e-004 
1.183983e-004 
1.185616e-004 
1.188295e-004 
1.191137e-004 
1.194515e-004 
1.198838e-004 
1.203578e-004 
1.208280e-004 
1.213654e-004 
1.219668e-004 
1.225618e-004 
1.231697e-004 
1.238590e-004 
1.245757e-004 
1.252811e-004 
1.260475e-004 
1.268977e-004 
1.277550e-004 
1.286443e-004 
1.296440e-004 
1.307158e-004 
1.318086e-004 
1.330008e-004 
1.343270e-004 
1.357134e-004 
1.371672e-004 
1.387758e-004 
1.405100e-004 
1.423072e-004 
1.442259e-004 
1.463138e-004 
1.484983e-004 
1.507582e-004 
1.531634e-004 
1.557021e-004 
1.582960e-004 
1.609597e-004 
1.637352e-004 
1.665677e-004 
1.693953e-004 
1.722413e-004 
1.751122e-004 
1.779371e-004 
1.806662e-004 
1.833181e-004 
1.858829e-004 
1.882809e-004 
1.904662e-004 
1.924714e-004 
1.942799e-004 
1.957909e-004 
1.969854e-004 
1.979341e-004 
1.985870e-004 
1.988308e-004 
1.987271e-004 
1.983627e-004 
1.976179e-004 
1.964331e-004 
1.949772e-004 
1.932718e-004 
1.911506e-004 
1.887034e-004 
1.861365e-004 
1.833355e-004 
1.802059e-004 
1.770059e-004 
1.738296e-004 
1.704718e-004 
1.670416e-004 
1.638318e-004 
1.607257e-004 
1.575982e-004 
1.547538e-004 
1.523068e-004 
1.500107e-004 
1.479684e-004 
1.464782e-004 
1.453825e-004 
1.445212e-004 
1.441720e-004 
1.443956e-004 
1.449006e-004 
1.457499e-004 
1.471676e-004 
1.489421e-004 
1.508863e-004 
1.532052e-004 
1.558907e-004 
1.586465e-004 
1.614989e-004 
1.646003e-004 
1.677432e-004 
1.707596e-004 
1.738074e-004 
1.768753e-004 
1.797297e-004 
1.823981e-004 
1.850206e-004 
1.874593e-004 
1.895996e-004 
1.915879e-004 
1.934582e-004 
1.950548e-004 
1.964148e-004 
1.976818e-004 
1.987888e-004 
1.996512e-004 
2.003974e-004 
2.010869e-004 
2.016134e-004 
2.019878e-004 
2.023429e-004 
2.026383e-004 
2.027934e-004 
2.028839e-004 
2.029788e-004 
2.029722e-004 
2.028545e-004 
2.026944e-004 
2.024593e-004 
2.020280e-004 
2.015180e-004 
1.000000e+000 
1.000000e+000 
1.176578e-004 
1.175903e-004 
1.176617e-004 
1.178142e-004 
1.179758e-004 
1.182308e-004 
1.185887e-004 
1.189630e-004 
1.193511e-004 
1.198479e-004 
1.203863e-004 
1.208917e-004 
1.214502e-004 
1.221086e-004 
1.227402e-004 
1.233539e-004 
1.240795e-004 
1.248650e-004 
1.255938e-004 
1.263866e-004 
1.273296e-004 
1.282779e-004 
1.292105e-004 
1.303146e-004 
1.315551e-004 
1.327688e-004 
1.340751e-004 
1.356248e-004 
1.372487e-004 
1.388724e-004 
1.407189e-004 
1.427974e-004 
1.448775e-004 
1.470470e-004 
1.495178e-004 
1.521170e-004 
1.546793e-004 
1.574381e-004 
1.604587e-004 
1.634480e-004 
1.664159e-004 
1.696265e-004 
1.729237e-004 
1.760419e-004 
1.791856e-004 
1.824893e-004 
1.856241e-004 
1.885074e-004 
1.914340e-004 
1.943013e-004 
1.967739e-004 
1.990119e-004 
2.012198e-004 
2.030884e-004 
2.044697e-004 
2.056719e-004 
2.066683e-004 
2.071200e-004 
2.071528e-004 
2.070224e-004 
2.064859e-004 
2.053885e-004 
2.040340e-004 
2.024636e-004 
2.003991e-004 
1.979592e-004 
1.954102e-004 
1.925930e-004 
1.894039e-004 
1.861214e-004 
1.828170e-004 
1.793107e-004 
1.757295e-004 
1.722958e-004 
1.689194e-004 
1.655687e-004 
1.624592e-004 
1.596382e-004 
1.570159e-004 
1.547016e-004 
1.528135e-004 
1.512889e-004 
1.501346e-004 
1.494497e-004 
1.492116e-004 
1.493737e-004 
1.499781e-004 
1.510106e-004 
1.524043e-004 
1.541556e-004 
1.562406e-004 
1.585770e-004 
1.611352e-004 
1.638934e-004 
1.667619e-004 
1.696876e-004 
1.726670e-004 
1.756311e-004 
1.785042e-004 
1.812934e-004 
1.839802e-004 
1.864876e-004 
1.888076e-004 
1.909740e-004 
1.929437e-004 
1.946830e-004 
1.962410e-004 
1.976347e-004 
1.988190e-004 
1.998204e-004 
2.006968e-004 
2.014321e-004 
2.020071e-004 
2.024857e-004 
2.028899e-004 
2.031856e-004 
2.033893e-004 
2.035595e-004 
2.036662e-004 
2.036887e-004 
2.036556e-004 
2.035809e-004 
2.034039e-004 
2.031505e-004 
2.028319e-004 
2.023561e-004 
1.000000e+000 
1.000000e+000 
1.168352e-004 
1.168472e-004 
1.169100e-004 
1.170995e-004 
1.173423e-004 
1.176118e-004 
1.179595e-004 
1.183918e-004 
1.188241e-004 
1.192841e-004 
1.198252e-004 
1.204004e-004 
1.209538e-004 
1.215586e-004 
1.222346e-004 
1.229081e-004 
1.235834e-004 
1.243485e-004 
1.251718e-004 
1.259941e-004 
1.268807e-004 
1.278917e-004 
1.289559e-004 
1.300630e-004 
1.313088e-004 
1.326973e-004 
1.341505e-004 
1.357164e-004 
1.374782e-004 
1.393831e-004 
1.413792e-004 
1.435546e-004 
1.459462e-004 
1.484618e-004 
1.510926e-004 
1.539369e-004 
1.569662e-004 
1.600720e-004 
1.632933e-004 
1.667075e-004 
1.702138e-004 
1.737156e-004 
1.772997e-004 
1.809901e-004 
1.846204e-004 
1.881471e-004 
1.916937e-004 
1.951928e-004 
1.984495e-004 
2.015220e-004 
2.045251e-004 
2.072753e-004 
2.096313e-004 
2.117712e-004 
2.137159e-004 
2.151988e-004 
2.162384e-004 
2.170688e-004 
2.175401e-004 
2.174266e-004 
2.169569e-004 
2.162735e-004 
2.150782e-004 
2.133542e-004 
2.114503e-004 
2.092809e-004 
2.065676e-004 
2.035803e-004 
2.005711e-004 
1.972415e-004 
1.935585e-004 
1.899501e-004 
1.863811e-004 
1.825558e-004 
1.787684e-004 
1.753181e-004 
1.719103e-004 
1.685103e-004 
1.655530e-004 
1.629976e-004 
1.605477e-004 
1.584773e-004 
1.570360e-004 
1.559140e-004 
1.550638e-004 
1.548348e-004 
1.551241e-004 
1.556367e-004 
1.565730e-004 
1.580695e-004 
1.598087e-004 
1.617211e-004 
1.640355e-004 
1.666072e-004 
1.691733e-004 
1.718635e-004 
1.747453e-004 
1.775547e-004 
1.802322e-004 
1.829442e-004 
1.855850e-004 
1.879674e-004 
1.901999e-004 
1.923596e-004 
1.942776e-004 
1.959273e-004 
1.974623e-004 
1.988482e-004 
1.999653e-004 
2.009113e-004 
2.017830e-004 
2.024853e-004 
2.029946e-004 
2.034456e-004 
2.038416e-004 
2.040922e-004 
2.042525e-004 
2.044185e-004 
2.045161e-004 
2.045017e-004 
2.044599e-004 
2.044143e-004 
2.042524e-004 
2.039676e-004 
2.036231e-004 
2.032333e-004 
1.000000e+000 
1.000000e+000 
1.158665e-004 
1.159831e-004 
1.161256e-004 
1.163151e-004 
1.166129e-004 
1.169635e-004 
1.172992e-004 
1.177213e-004 
1.182311e-004 
1.187194e-004 
1.192112e-004 
1.198163e-004 
1.204427e-004 
1.210179e-004 
1.216651e-004 
1.224199e-004 
1.231342e-004 
1.238501e-004 
1.247186e-004 
1.256537e-004 
1.265453e-004 
1.275594e-004 
1.287676e-004 
1.299941e-004 
1.312590e-004 
1.327739e-004 
1.344588e-004 
1.361519e-004 
1.380266e-004 
1.402132e-004 
1.424975e-004 
1.448463e-004 
1.475100e-004 
1.504372e-004 
1.533872e-004 
1.565039e-004 
1.599705e-004 
1.635507e-004 
1.671171e-004 
1.709287e-004 
1.749749e-004 
1.789447e-004 
1.829086e-004 
1.870935e-004 
1.912709e-004 
1.952237e-004 
1.991852e-004 
2.032028e-004 
2.069410e-004 
2.103969e-004 
2.138201e-004 
2.170349e-004 
2.197849e-004 
2.222662e-004 
2.245803e-004 
2.264336e-004 
2.277870e-004 
2.288865e-004 
2.296291e-004 
2.297933e-004 
2.295432e-004 
2.290050e-004 
2.279757e-004 
2.264362e-004 
2.245994e-004 
2.224258e-004 
2.197918e-004 
2.168427e-004 
2.136883e-004 
2.102367e-004 
2.065304e-004 
2.027218e-004 
1.988096e-004 
1.947938e-004 
1.907978e-004 
1.868737e-004 
1.830300e-004 
1.793645e-004 
1.759330e-004 
1.727379e-004 
1.698718e-004 
1.673936e-004 
1.652630e-004 
1.635409e-004 
1.623168e-004 
1.615152e-004 
1.611090e-004 
1.612069e-004 
1.617602e-004 
1.626346e-004 
1.638931e-004 
1.655641e-004 
1.674702e-004 
1.695606e-004 
1.719231e-004 
1.744417e-004 
1.769571e-004 
1.795346e-004 
1.821821e-004 
1.847204e-004 
1.871204e-004 
1.894810e-004 
1.917121e-004 
1.936967e-004 
1.955249e-004 
1.972405e-004 
1.987204e-004 
1.999684e-004 
2.011061e-004 
2.020969e-004 
2.028604e-004 
2.034944e-004 
2.040684e-004 
2.044976e-004 
2.047820e-004 
2.050409e-004 
2.052544e-004 
2.053468e-004 
2.053858e-004 
2.054394e-004 
2.054144e-004 
2.052841e-004 
2.051376e-004 
2.049717e-004 
2.046727e-004 
2.042342e-004 
1.000000e+000 
1.000000e+000 
1.148780e-004 
1.150454e-004 
1.152747e-004 
1.155233e-004 
1.158132e-004 
1.162081e-004 
1.166316e-004 
1.170482e-004 
1.175284e-004 
1.180918e-004 