# vtk DataFile Version 2.0
2D-ADE data file 
ASCII
DATASET RECTILINEAR_GRID
DIMENSIONS 128 128 1
X_COORDINATES 128 int
0 1 2 3 4 5 6 7 8 9 10 11 12 13 14 15 16 17 18 19 20 21 22 23 24 25 26 27 28 29 30 31 32 33 34 35 36 37 38 39 40 41 42 43 44 45 46 47 48 49 50 51 52 53 54 55 56 57 58 59 60 61 62 63 64 65 66 67 68 69 70 71 72 73 74 75 76 77 78 79 80 81 82 83 84 85 86 87 88 89 90 91 92 93 94 95 96 97 98 99 100 101 102 103 104 105 106 107 108 109 110 111 112 113 114 115 116 117 118 119 120 121 122 123 124 125 126 127 
Y_COORDINATES 128 int
0 1 2 3 4 5 6 7 8 9 10 11 12 13 14 15 16 17 18 19 20 21 22 23 24 25 26 27 28 29 30 31 32 33 34 35 36 37 38 39 40 41 42 43 44 45 46 47 48 49 50 51 52 53 54 55 56 57 58 59 60 61 62 63 64 65 66 67 68 69 70 71 72 73 74 75 76 77 78 79 80 81 82 83 84 85 86 87 88 89 90 91 92 93 94 95 96 97 98 99 100 101 102 103 104 105 106 107 108 109 110 111 112 113 114 115 116 117 118 119 120 121 122 123 124 125 126 127 
Z_COORDINATES 1 int
0
POINT_DATA 16384 
SCALARS density double 1
LOOKUP_TABLE default
1.000000e+000 
1.000000e+000 
1.000000e+000 
1.000000e+000 
1.000000e+000 
1.000000e+000 
1.000000e+000 
1.000000e+000 
1.000000e+000 
1.000000e+000 
1.000000e+000 
1.000000e+000 
1.000000e+000 
1.000000e+000 
1.000000e+000 
1.000000e+000 
1.000000e+000 
1.000000e+000 
1.000000e+000 
1.000000e+000 
1.000000e+000 
1.000000e+000 
1.000000e+000 
1.000000e+000 
1.000000e+000 
1.000000e+000 
1.000000e+000 
1.000000e+000 
1.000000e+000 
1.000000e+000 
1.000000e+000 
1.000000e+000 
1.000000e+000 
1.000000e+000 
1.000000e+000 
1.000000e+000 
1.000000e+000 
1.000000e+000 
1.000000e+000 
1.000000e+000 
1.000000e+000 
1.000000e+000 
1.000000e+000 
1.000000e+000 
1.000000e+000 
1.000000e+000 
1.000000e+000 
1.000000e+000 
1.000000e+000 
1.000000e+000 
1.000000e+000 
1.000000e+000 
1.000000e+000 
1.000000e+000 
1.000000e+000 
1.000000e+000 
1.000000e+000 
1.000000e+000 
1.000000e+000 
1.000000e+000 
1.000000e+000 
1.000000e+000 
1.000000e+000 
1.000000e+000 
1.000000e+000 
1.000000e+000 
1.000000e+000 
1.000000e+000 
1.000000e+000 
1.000000e+000 
1.000000e+000 
1.000000e+000 
1.000000e+000 
1.000000e+000 
1.000000e+000 
1.000000e+000 
1.000000e+000 
1.000000e+000 
1.000000e+000 
1.000000e+000 
1.000000e+000 
1.000000e+000 
1.000000e+000 
1.000000e+000 
1.000000e+000 
1.000000e+000 
1.000000e+000 
1.000000e+000 
1.000000e+000 
1.000000e+000 
1.000000e+000 
1.000000e+000 
1.000000e+000 
1.000000e+000 
1.000000e+000 
1.000000e+000 
1.000000e+000 
1.000000e+000 
1.000000e+000 
1.000000e+000 
1.000000e+000 
1.000000e+000 
1.000000e+000 
1.000000e+000 
1.000000e+000 
1.000000e+000 
1.000000e+000 
1.000000e+000 
1.000000e+000 
1.000000e+000 
1.000000e+000 
1.000000e+000 
1.000000e+000 
1.000000e+000 
1.000000e+000 
1.000000e+000 
1.000000e+000 
1.000000e+000 
1.000000e+000 
1.000000e+000 
1.000000e+000 
1.000000e+000 
1.000000e+000 
1.000000e+000 
1.000000e+000 
1.000000e+000 
1.000000e+000 
1.000000e+000 
1.000000e+000 
1.170834e-004 
1.169873e-004 
1.168509e-004 
1.167712e-004 
1.167252e-004 
1.168780e-004 
1.171175e-004 
1.174781e-004 
1.179028e-004 
1.184962e-004 
1.191444e-004 
1.198577e-004 
1.206487e-004 
1.215488e-004 
1.224602e-004 
1.234152e-004 
1.244639e-004 
1.255664e-004 
1.266662e-004 
1.278343e-004 
1.291045e-004 
1.303866e-004 
1.316930e-004 
1.331100e-004 
1.346121e-004 
1.361052e-004 
1.376776e-004 
1.393804e-004 
1.411228e-004 
1.428640e-004 
1.447379e-004 
1.467110e-004 
1.486680e-004 
1.506585e-004 
1.527963e-004 
1.549486e-004 
1.570464e-004 
1.592175e-004 
1.614797e-004 
1.636431e-004 
1.657471e-004 
1.679269e-004 
1.700646e-004 
1.720050e-004 
1.739026e-004 
1.758003e-004 
1.774799e-004 
1.789182e-004 
1.803122e-004 
1.815447e-004 
1.824124e-004 
1.830576e-004 
1.835947e-004 
1.837758e-004 
1.835474e-004 
1.831434e-004 
1.825007e-004 
1.813768e-004 
1.799259e-004 
1.783219e-004 
1.763477e-004 
1.739294e-004 
1.713474e-004 
1.685960e-004 
1.654535e-004 
1.620791e-004 
1.587026e-004 
1.551563e-004 
1.513848e-004 
1.476786e-004 
1.440833e-004 
1.404192e-004 
1.368423e-004 
1.335830e-004 
1.305206e-004 
1.276123e-004 
1.251048e-004 
1.230446e-004 
1.212800e-004 
1.199214e-004 
1.191305e-004 
1.187987e-004 
1.188582e-004 
1.194609e-004 
1.206008e-004 
1.221328e-004 
1.240784e-004 
1.265141e-004 
1.293110e-004 
1.323809e-004 
1.357666e-004 
1.394394e-004 
1.432459e-004 
1.471752e-004 
1.512316e-004 
1.553309e-004 
1.593657e-004 
1.633760e-004 
1.673132e-004 
1.711077e-004 
1.747131e-004 
1.781870e-004 
1.814458e-004 
1.844807e-004 
1.872784e-004 
1.898975e-004 
1.922426e-004 
1.943759e-004 
1.962745e-004 
1.980026e-004 
1.994619e-004 
2.007723e-004 
2.018660e-004 
2.028307e-004 
2.035543e-004 
2.041969e-004 
2.046298e-004 
2.049799e-004 
2.051040e-004 
2.051962e-004 
2.050829e-004 
2.049306e-004 
2.045881e-004 
2.042857e-004 
2.040111e-004 
2.038854e-004 
1.000000e+000 
1.000000e+000 
1.171690e-004 
1.170698e-004 
1.169584e-004 
1.169809e-004 
1.169500e-004 
1.171175e-004 
1.173241e-004 
1.177156e-004 
1.181005e-004 
1.186606e-004 
1.192716e-004 
1.199769e-004 
1.207061e-004 
1.215625e-004 
1.224498e-004 
1.233738e-004 
1.243602e-004 
1.254296e-004 
1.265129e-004 
1.276324e-004 
1.288492e-004 
1.301094e-004 
1.313921e-004 
1.327453e-004 
1.342044e-004 
1.356771e-004 
1.372064e-004 
1.388349e-004 
1.405438e-004 
1.422560e-004 
1.440633e-004 
1.459611e-004 
1.478950e-004 
1.498411e-004 
1.518936e-004 
1.539853e-004 
1.560715e-004 
1.581781e-004 
1.603518e-004 
1.624893e-004 
1.645886e-004 
1.666843e-004 
1.687601e-004 
1.707240e-004 
1.726096e-004 
1.744196e-004 
1.761033e-004 
1.776083e-004 
1.789681e-004 
1.801508e-004 
1.811152e-004 
1.818364e-004 
1.823246e-004 
1.825503e-004 
1.824964e-004 
1.821353e-004 
1.814767e-004 
1.805261e-004 
1.792630e-004 
1.776597e-004 
1.757732e-004 
1.736253e-004 
1.711674e-004 
1.684252e-004 
1.655101e-004 
1.624027e-004 
1.590612e-004 
1.556133e-004 
1.521554e-004 
1.486055e-004 
1.450117e-004 
1.415665e-004 
1.382590e-004 
1.350142e-004 
1.320062e-004 
1.293649e-004 
1.269654e-004 
1.248437e-004 
1.232118e-004 
1.220319e-004 
1.211713e-004 
1.207945e-004 
1.209928e-004 
1.215922e-004 
1.225687e-004 
1.241030e-004 
1.260868e-004 
1.283550e-004 
1.309958e-004 
1.340713e-004 
1.373469e-004 
1.407886e-004 
1.444920e-004 
1.483710e-004 
1.522121e-004 
1.561196e-004 
1.600897e-004 
1.639785e-004 
1.676872e-004 
1.713785e-004 
1.749211e-004 
1.782399e-004 
1.813344e-004 
1.843455e-004 
1.870611e-004 
1.895504e-004 
1.918208e-004 
1.939721e-004 
1.957735e-004 
1.974402e-004 
1.988914e-004 
2.002285e-004 
2.012286e-004 
2.022119e-004 
2.029528e-004 
2.036223e-004 
2.039871e-004 
2.044283e-004 
2.045740e-004 
2.047146e-004 
2.045880e-004 
2.045898e-004 
2.042982e-004 
2.040900e-004 
2.038899e-004 
2.037956e-004 
1.000000e+000 
1.000000e+000 
1.172950e-004 
1.171954e-004 
1.170744e-004 
1.170351e-004 
1.171113e-004 
1.172638e-004 
1.174651e-004 
1.178106e-004 
1.182528e-004 
1.187475e-004 
1.193127e-004 
1.200093e-004 
1.207451e-004 
1.215049e-004 
1.223578e-004 
1.233001e-004 
1.242338e-004 
1.252088e-004 
1.262980e-004 
1.274235e-004 
1.285348e-004 
1.297411e-004 
1.310567e-004 
1.323624e-004 
1.336976e-004 
1.351768e-004 
1.367209e-004 
1.382380e-004 
1.398563e-004 
1.416194e-004 
1.433783e-004 
1.451363e-004 
1.470515e-004 
1.490455e-004 
1.509768e-004 
1.529648e-004 
1.551028e-004 
1.572038e-004 
1.592252e-004 
1.613498e-004 
1.635273e-004 
1.655484e-004 
1.675159e-004 
1.695655e-004 
1.714991e-004 
1.732043e-004 
1.748871e-004 
1.765310e-004 
1.778828e-004 
1.790049e-004 
1.800845e-004 
1.809314e-004 
1.813847e-004 
1.816536e-004 
1.817787e-004 
1.814941e-004 
1.808371e-004 
1.800328e-004 
1.789397e-004 
1.773834e-004 
1.755786e-004 
1.736208e-004 
1.712870e-004 
1.686101e-004 
1.658401e-004 
1.628997e-004 
1.596526e-004 
1.563081e-004 
1.529982e-004 
1.495699e-004 
1.460704e-004 
1.427326e-004 
1.395313e-004 
1.363820e-004 
1.334596e-004 
1.308810e-004 
1.285503e-004 
1.265067e-004 
1.249088e-004 
1.237380e-004 
1.229313e-004 
1.225832e-004 
1.227415e-004 
1.233282e-004 
1.243335e-004 
1.258104e-004 
1.277103e-004 
1.299641e-004 
1.325702e-004 
1.355121e-004 
1.387089e-004 
1.421151e-004 
1.457049e-004 
1.494283e-004 
1.532160e-004 
1.570368e-004 
1.608493e-004 
1.646131e-004 
1.682802e-004 
1.718326e-004 
1.752360e-004 
1.784771e-004 
1.815231e-004 
1.843767e-004 
1.870192e-004 
1.894605e-004 
1.916758e-004 
1.936927e-004 
1.954987e-004 
1.971177e-004 
1.985272e-004 
1.997765e-004 
2.008424e-004 
2.017575e-004 
2.024988e-004 
2.031270e-004 
2.035957e-004 
2.039494e-004 
2.041661e-004 
2.043015e-004 
2.042989e-004 
2.042231e-004 
2.040884e-004 
2.038967e-004 
2.036755e-004 
2.035010e-004 
1.000000e+000 
1.000000e+000 
1.173768e-004 
1.171763e-004 
1.171066e-004 
1.170687e-004 
1.171370e-004 
1.172806e-004 
1.175273e-004 
1.178326e-004 
1.182644e-004 
1.187614e-004 
1.193229e-004 
1.199549e-004 
1.206783e-004 
1.214367e-004 
1.222418e-004 
1.231205e-004 
1.240524e-004 
1.250079e-004 
1.260189e-004 
1.271030e-004 
1.282183e-004 
1.293734e-004 
1.306028e-004 
1.318988e-004 
1.332250e-004 
1.346194e-004 
1.360964e-004 
1.376298e-004 
1.392051e-004 
1.408673e-004 
1.426019e-004 
1.443818e-004 
1.462125e-004 
1.481250e-004 
1.500850e-004 
1.520735e-004 
1.541026e-004 
1.561840e-004 
1.582739e-004 
1.603577e-004 
1.624466e-004 
1.645376e-004 
1.665766e-004 
1.685496e-004 
1.704734e-004 
1.723274e-004 
1.740403e-004 
1.756144e-004 
1.770765e-004 
1.783694e-004 
1.794187e-004 
1.802712e-004 
1.809422e-004 
1.813260e-004 
1.813940e-004 
1.812440e-004 
1.808327e-004 
1.800410e-004 
1.789434e-004 
1.776376e-004 
1.759977e-004 
1.739804e-004 
1.717636e-004 
1.693575e-004 
1.666088e-004 
1.636322e-004 
1.606137e-004 
1.574346e-004 
1.540402e-004 
1.506831e-004 
1.474206e-004 
1.440815e-004 
1.408024e-004 
1.378237e-004 
1.350232e-004 
1.323306e-004 
1.300181e-004 
1.281439e-004 
1.265095e-004 
1.252306e-004 
1.245270e-004 
1.242421e-004 
1.242708e-004 
1.248314e-004 
1.259348e-004 
1.273449e-004 
1.291239e-004 
1.314149e-004 
1.340334e-004 
1.368355e-004 
1.399722e-004 
1.434057e-004 
1.469092e-004 
1.504937e-004 
1.542657e-004 
1.580481e-004 
1.617210e-004 
1.653863e-004 
1.690381e-004 
1.724834e-004 
1.757547e-004 
1.789366e-004 
1.819401e-004 
1.846564e-004 
1.872152e-004 
1.896159e-004 
1.917666e-004 
1.936618e-004 
1.954428e-004 
1.970205e-004 
1.983702e-004 
1.995406e-004 
2.006290e-004 
2.014969e-004 
2.022126e-004 
2.028084e-004 
2.033341e-004 
2.036426e-004 
2.038851e-004 
2.040292e-004 
2.041076e-004 
2.039870e-004 
2.038864e-004 
2.037247e-004 
2.035101e-004 
2.031752e-004 
1.000000e+000 
1.000000e+000 
1.174260e-004 
1.171879e-004 
1.170405e-004 
1.170243e-004 
1.170753e-004 
1.172201e-004 
1.174940e-004 
1.178104e-004 
1.181911e-004 
1.186898e-004 
1.192736e-004 
1.198637e-004 
1.205317e-004 
1.213067e-004 
1.220977e-004 
1.228952e-004 
1.237990e-004 
1.247711e-004 
1.257175e-004 
1.267198e-004 
1.278449e-004 
1.289854e-004 
1.301132e-004 
1.313665e-004 
1.327191e-004 
1.340469e-004 
1.354261e-004 
1.369708e-004 
1.385511e-004 
1.401074e-004 
1.417947e-004 
1.436215e-004 
1.454110e-004 
1.472257e-004 
1.492129e-004 
1.512460e-004 
1.532009e-004 
1.552484e-004 
1.574263e-004 
1.595251e-004 
1.615554e-004 
1.637048e-004 
1.658514e-004 
1.678166e-004 
1.697501e-004 
1.717364e-004 
1.735398e-004 
1.751207e-004 
1.766788e-004 
1.781274e-004 
1.792446e-004 
1.801548e-004 
1.809771e-004 
1.814958e-004 
1.816321e-004 
1.815907e-004 
1.813313e-004 
1.806458e-004 
1.796349e-004 
1.784483e-004 
1.769276e-004 
1.750054e-004 
1.728766e-004 
1.705570e-004 
1.679026e-004 
1.650126e-004 
1.620416e-004 
1.589138e-004 
1.556088e-004 
1.522961e-004 
1.490244e-004 
1.457370e-004 
1.425277e-004 
1.395161e-004 
1.366895e-004 
1.340690e-004 
1.317587e-004 
1.297946e-004 
1.281762e-004 
1.269534e-004 
1.261633e-004 
1.258067e-004 
1.258993e-004 
1.264413e-004 
1.274181e-004 
1.288316e-004 
1.306604e-004 
1.328468e-004 
1.353781e-004 
1.382363e-004 
1.413421e-004 
1.446383e-004 
1.481274e-004 
1.517432e-004 
1.553969e-004 
1.590751e-004 
1.627699e-004 
1.663849e-004 
1.698828e-004 
1.732826e-004 
1.765502e-004 
1.796075e-004 
1.824847e-004 
1.851948e-004 
1.876917e-004 
1.899487e-004 
1.920346e-004 
1.939280e-004 
1.956026e-004 
1.970775e-004 
1.984191e-004 
1.995706e-004 
2.005493e-004 
2.013885e-004 
2.021262e-004 
2.026884e-004 
2.031429e-004 
2.034989e-004 
2.037643e-004 
2.038731e-004 
2.039330e-004 
2.039148e-004 
2.038066e-004 
2.035718e-004 
2.032350e-004 
2.028789e-004 
1.000000e+000 
1.000000e+000 
1.172696e-004 
1.170170e-004 
1.168861e-004 
1.168862e-004 
1.169505e-004 
1.170973e-004 
1.173321e-004 
1.176828e-004 
1.180882e-004 
1.185514e-004 
1.191015e-004 
1.197277e-004 
1.203786e-004 
1.210833e-004 
1.218645e-004 
1.226833e-004 
1.235182e-004 
1.244192e-004 
1.253856e-004 
1.263702e-004 
1.273910e-004 
1.284976e-004 
1.296581e-004 
1.308399e-004 
1.320934e-004 
1.334433e-004 
1.348346e-004 
1.362659e-004 
1.378010e-004 
1.394240e-004 
1.410748e-004 
1.427909e-004 
1.446238e-004 
1.465125e-004 
1.484162e-004 
1.504061e-004 
1.524921e-004 
1.545782e-004 
1.566683e-004 
1.588447e-004 
1.610497e-004 
1.631822e-004 
1.653081e-004 
1.674774e-004 
1.695582e-004 
1.714964e-004 
1.734090e-004 
1.752602e-004 
1.768808e-004 
1.783171e-004 
1.796808e-004 
1.808223e-004 
1.816221e-004 
1.822358e-004 
1.826834e-004 
1.827440e-004 
1.824448e-004 
1.819796e-004 
1.812187e-004 
1.799936e-004 
1.785062e-004 
1.768583e-004 
1.748150e-004 
1.723975e-004 
1.698849e-004 
1.671939e-004 
1.641395e-004 
1.609651e-004 
1.578470e-004 
1.545623e-004 
1.511374e-004 
1.479013e-004 
1.448060e-004 
1.416676e-004 
1.387386e-004 
1.362127e-004 
1.338747e-004 
1.317406e-004 
1.301150e-004 
1.289378e-004 
1.280170e-004 
1.275552e-004 
1.276888e-004 
1.281888e-004 
1.290307e-004 
1.304274e-004 
1.322752e-004 
1.343686e-004 
1.368257e-004 
1.397061e-004 
1.427793e-004 
1.459865e-004 
1.494551e-004 
1.530735e-004 
1.566550e-004 
1.602705e-004 
1.639528e-004 
1.675248e-004 
1.709344e-004 
1.742875e-004 
1.775151e-004 
1.804926e-004 
1.832830e-004 
1.859461e-004 
1.883711e-004 
1.905391e-004 
1.925495e-004 
1.943924e-004 
1.959828e-004 
1.973870e-004 
1.986697e-004 
1.997787e-004 
2.006862e-004 
2.014890e-004 
2.021889e-004 
2.027340e-004 
2.031443e-004 
2.035006e-004 
2.037513e-004 
2.038779e-004 
2.039150e-004 
2.039034e-004 
2.037473e-004 
2.035286e-004 
2.032385e-004 
2.027793e-004 
1.000000e+000 
1.000000e+000 
1.170310e-004 
1.168376e-004 
1.166742e-004 
1.166210e-004 
1.167121e-004 
1.169082e-004 
1.171289e-004 
1.174623e-004 
1.178992e-004 
1.183705e-004 
1.188794e-004 
1.195034e-004 
1.201729e-004 
1.208370e-004 
1.215709e-004 
1.223988e-004 
1.232162e-004 
1.240459e-004 
1.249854e-004 
1.259760e-004 
1.269391e-004 
1.279794e-004 
1.291430e-004 
1.303091e-004 
1.314860e-004 
1.328083e-004 
1.342206e-004 
1.356111e-004 
1.370903e-004 
1.387373e-004 
1.404092e-004 
1.420822e-004 
1.439167e-004 
1.458720e-004 
1.477944e-004 
1.497787e-004 
1.519380e-004 
1.541162e-004 
1.562423e-004 
1.584813e-004 
1.608179e-004 
1.630600e-004 
1.652644e-004 
1.675639e-004 
1.698089e-004 
1.718776e-004 
1.739165e-004 
1.759363e-004 
1.777346e-004 
1.793218e-004 
1.808337e-004 
1.821503e-004 
1.831328e-004 
1.838953e-004 
1.844751e-004 
1.847057e-004 
1.845791e-004 
1.842178e-004 
1.835580e-004 
1.824998e-004 
1.811338e-004 
1.795155e-004 
1.775631e-004 
1.752904e-004 
1.727964e-004 
1.700808e-004 
1.671309e-004 
1.640212e-004 
1.608068e-004 
1.575064e-004 
1.541749e-004 
1.508660e-004 
1.476239e-004 
1.445216e-004 
1.416006e-004 
1.388805e-004 
1.364482e-004 
1.343687e-004 
1.326147e-004 
1.312299e-004 
1.303172e-004 
1.298442e-004 
1.297599e-004 
1.301582e-004 
1.310583e-004 
1.323364e-004 
1.339981e-004 
1.361204e-004 
1.385893e-004 
1.412935e-004 
1.443009e-004 
1.475855e-004 
1.509721e-004 
1.544474e-004 
1.580676e-004 
1.617046e-004 
1.652423e-004 
1.687531e-004 
1.722180e-004 
1.754931e-004 
1.785792e-004 
1.815587e-004 
1.843429e-004 
1.868603e-004 
1.891946e-004 
1.913761e-004 
1.933011e-004 
1.949983e-004 
1.965579e-004 
1.979479e-004 
1.991041e-004 
2.001235e-004 
2.010410e-004 
2.017960e-004 
2.023848e-004 
2.029164e-004 
2.033506e-004 
2.036457e-004 
2.038402e-004 
2.040062e-004 
2.040472e-004 
2.039902e-004 
2.038512e-004 
2.036154e-004 
2.031804e-004 
2.026896e-004 
1.000000e+000 
1.000000e+000 
1.166528e-004 
1.164120e-004 
1.163301e-004 
1.163323e-004 
1.163962e-004 
1.165846e-004 
1.168645e-004 
1.171954e-004 
1.175970e-004 
1.181036e-004 
1.186454e-004 
1.192106e-004 
1.198552e-004 
1.205680e-004 
1.212742e-004 
1.220150e-004 
1.228444e-004 
1.237029e-004 
1.245512e-004 
1.254769e-004 
1.264915e-004 
1.275088e-004 
1.285543e-004 
1.297247e-004 
1.309647e-004 
1.322047e-004 
1.335377e-004 
1.350164e-004 
1.365291e-004 
1.380701e-004 
1.397663e-004 
1.415844e-004 
1.434015e-004 
1.453006e-004 
1.473801e-004 
1.495113e-004 
1.516257e-004 
1.538756e-004 
1.562615e-004 
1.585996e-004 
1.609301e-004 
1.634058e-004 
1.658905e-004 
1.682309e-004 
1.705837e-004 
1.730045e-004 
1.752507e-004 
1.772968e-004 
1.793496e-004 
1.812955e-004 
1.828947e-004 
1.842964e-004 
1.856331e-004 
1.866373e-004 
1.872179e-004 
1.876395e-004 
1.878475e-004 
1.875517e-004 
1.868954e-004 
1.861014e-004 
1.849239e-004 
1.832379e-004 
1.813600e-004 
1.793147e-004 
1.768121e-004 
1.740016e-004 
1.711774e-004 
1.681446e-004 
1.647828e-004 
1.614365e-004 
1.581860e-004 
1.547759e-004 
1.513606e-004 
1.482476e-004 
1.452814e-004 
1.423606e-004 
1.398016e-004 
1.376785e-004 
1.357668e-004 
1.341918e-004 
1.331917e-004 
1.326110e-004 
1.323464e-004 
1.326178e-004 
1.334343e-004 
1.345812e-004 
1.361155e-004 
1.381600e-004 
1.405446e-004 
1.431514e-004 
1.460905e-004 
1.493168e-004 
1.526385e-004 
1.560611e-004 
1.596361e-004 
1.632211e-004 
1.667171e-004 
1.701882e-004 
1.736002e-004 
1.768255e-004 
1.798726e-004 
1.827934e-004 
1.855109e-004 
1.879760e-004 
1.902533e-004 
1.923528e-004 
1.942092e-004 
1.958489e-004 
1.973332e-004 
1.986389e-004 
1.997411e-004 
2.007011e-004 
2.015442e-004 
2.022403e-004 
2.027997e-004 
2.032786e-004 
2.036643e-004 
2.039381e-004 
2.041244e-004 
2.042578e-004 
2.042863e-004 
2.042063e-004 
2.040432e-004 
2.038163e-004 
2.034493e-004 
2.028887e-004 
1.000000e+000 
1.000000e+000 
1.162084e-004 
1.159928e-004 
1.158787e-004 
1.159127e-004 
1.160091e-004 
1.161910e-004 
1.164953e-004 
1.168664e-004 
1.172602e-004 
1.177483e-004 
1.183193e-004 
1.188959e-004 
1.195008e-004 
1.202005e-004 
1.209259e-004 
1.216374e-004 
1.224167e-004 
1.232760e-004 
1.241221e-004 
1.249933e-004 
1.259757e-004 
1.270073e-004 
1.280313e-004 
1.291539e-004 
1.303999e-004 
1.316653e-004 
1.329768e-004 
1.344481e-004 
1.360142e-004 
1.375972e-004 
1.393021e-004 
1.411775e-004 
1.430994e-004 
1.450720e-004 
1.472177e-004 
1.494830e-004 
1.517561e-004 
1.541237e-004 
1.566463e-004 
1.591953e-004 
1.617317e-004 
1.643660e-004 
1.670561e-004 
1.696705e-004 
1.722494e-004 
1.748523e-004 
1.773630e-004 
1.797108e-004 
1.819654e-004 
1.841038e-004 
1.860093e-004 
1.876808e-004 
1.891573e-004 
1.903712e-004 
1.912609e-004 
1.918511e-004 
1.921400e-004 
1.920826e-004 
1.916658e-004 
1.909003e-004 
1.897935e-004 
1.883493e-004 
1.865553e-004 
1.844293e-004 
1.820368e-004 
1.793855e-004 
1.764503e-004 
1.733204e-004 
1.700904e-004 
1.667155e-004 
1.632207e-004 
1.597782e-004 
1.564150e-004 
1.530579e-004 
1.498516e-004 
1.469510e-004 
1.442599e-004 
1.417832e-004 
1.397439e-004 
1.381411e-004 
1.368332e-004 
1.359649e-004 
1.356754e-004 
1.357893e-004 
1.362638e-004 
1.372932e-004 
1.388063e-004 
1.405955e-004 
1.427625e-004 
1.453842e-004 
1.482296e-004 
1.512186e-004 
1.544950e-004 
1.579492e-004 
1.613669e-004 
1.648227e-004 
1.683707e-004 
1.718038e-004 
1.750564e-004 
1.782610e-004 
1.813461e-004 
1.841504e-004 
1.867573e-004 
1.892471e-004 
1.914850e-004 
1.934367e-004 
1.952433e-004 
1.968888e-004 
1.982642e-004 
1.994489e-004 
2.005444e-004 
2.014658e-004 
2.021829e-004 
2.028196e-004 
2.033897e-004 
2.037988e-004 
2.040961e-004 
2.043756e-004 
2.045671e-004 
2.046212e-004 
2.046262e-004 
2.046013e-004 
2.044300e-004 
2.041085e-004 
2.036819e-004 
2.031892e-004 
1.000000e+000 
1.000000e+000 
1.155678e-004 
1.154086e-004 
1.153375e-004 
1.153816e-004 
1.155369e-004 
1.157565e-004 
1.160281e-004 
1.164202e-004 
1.168829e-004 
1.173531e-004 
1.178812e-004 
1.185095e-004 
1.191409e-004 
1.197660e-004 
1.204782e-004 
1.212522e-004 
1.219885e-004 
1.227624e-004 
1.236523e-004 
1.245593e-004 
1.254439e-004 
1.264457e-004 
1.275641e-004 
1.286686e-004 
1.298232e-004 
1.311637e-004 
1.325831e-004 
1.339956e-004 
1.355608e-004 
1.373269e-004 
1.391151e-004 
1.409538e-004 
1.430292e-004 
1.452481e-004 
1.474468e-004 
1.497851e-004 
1.523687e-004 
1.549782e-004 
1.575642e-004 
1.603560e-004 
1.632893e-004 
1.661115e-004 
1.689420e-004 
1.719551e-004 
1.749052e-004 
1.776435e-004 
1.804192e-004 
1.832262e-004 
1.857362e-004 
1.880088e-004 
1.902882e-004 
1.923466e-004 
1.939489e-004 
1.953533e-004 
1.966361e-004 
1.974462e-004 
1.977932e-004 
1.979868e-004 
1.978597e-004 
1.971439e-004 
1.961026e-004 
1.948960e-004 
1.932084e-004 
1.910352e-004 
1.887271e-004 
1.861934e-004 
1.831928e-004 
1.799912e-004 
1.767973e-004 
1.733652e-004 
1.697093e-004 
1.661745e-004 
1.627218e-004 
1.591718e-004 
1.557707e-004 
1.527085e-004 
1.498029e-004 
1.470839e-004 
1.448211e-004 
1.429731e-004 
1.414090e-004 
1.403024e-004 
1.397529e-004 
1.396049e-004 
1.398638e-004 
1.406640e-004 
1.419224e-004 
1.435221e-004 
1.455291e-004 
1.479382e-004 
1.506072e-004 
1.535016e-004 
1.566445e-004 
1.599373e-004 
1.632848e-004 
1.666903e-004 
1.701149e-004 
1.734629e-004 
1.767071e-004 
1.798471e-004 
1.828269e-004 
1.856063e-004 
1.881970e-004 
1.905890e-004 
1.927522e-004 
1.946962e-004 
1.964400e-004 
1.979764e-004 
1.993103e-004 
2.004693e-004 
2.014648e-004 
2.023025e-004 
2.030036e-004 
2.035881e-004 
2.040611e-004 
2.044376e-004 
2.047290e-004 
2.049442e-004 
2.050834e-004 
2.051557e-004 
2.051482e-004 
2.050597e-004 
2.048754e-004 
2.046208e-004 
2.042474e-004 
2.036897e-004 
1.000000e+000 
1.000000e+000 
1.148482e-004 
1.147585e-004 
1.147271e-004 
1.147720e-004 
1.149395e-004 
1.152234e-004 
1.155333e-004 
1.159081e-004 
1.163842e-004 
1.169068e-004 
1.174306e-004 
1.180257e-004 
1.186846e-004 
1.193373e-004 
1.200052e-004 
1.207553e-004 
1.215314e-004 
1.222991e-004 
1.231324e-004 
1.240522e-004 
1.249834e-004 
1.259562e-004 
1.270488e-004 
1.282215e-004 
1.294274e-004 
1.307488e-004 
1.322176e-004 
1.337606e-004 
1.353900e-004 
1.371936e-004 
1.391391e-004 
1.411664e-004 
1.433373e-004 
1.456966e-004 
1.481695e-004 
1.507378e-004 
1.534708e-004 
1.563521e-004 
1.593023e-004 
1.623370e-004 
1.654939e-004 
1.687135e-004 
1.719333e-004 
1.751741e-004 
1.784367e-004 
1.816466e-004 
1.847524e-004 
1.877682e-004 
1.906790e-004 
1.934031e-004 
1.958916e-004 
1.981727e-004 
2.002269e-004 
2.019520e-004 
2.033260e-004 
2.044169e-004 
2.051742e-004 
2.054833e-004 
2.054041e-004 
2.050237e-004 
2.042228e-004 
2.029414e-004 
2.013495e-004 
1.994708e-004 
1.971404e-004 
1.944496e-004 
1.916083e-004 
1.885053e-004 
1.850487e-004 
1.815010e-004 
1.779614e-004 
1.742279e-004 
1.704146e-004 
1.668202e-004 
1.633325e-004 
1.598312e-004 
1.566266e-004 
1.538381e-004 
1.512229e-004 
1.488890e-004 
1.471394e-004 
1.458182e-004 
1.447687e-004 
1.442717e-004 
1.443877e-004 
1.448251e-004 
1.456481e-004 
1.470789e-004 
1.489018e-004 
1.509285e-004 
1.533613e-004 
1.561857e-004 
1.591010e-004 
1.621312e-004 
1.654222e-004 
1.687602e-004 
1.719750e-004 
1.752204e-004 
1.784790e-004 
1.815145e-004 
1.843540e-004 
1.871335e-004 
1.897123e-004 
1.919776e-004 
1.940752e-004 
1.960371e-004 
1.977092e-004 
1.991314e-004 
2.004467e-004 
2.015889e-004 
2.024768e-004 
2.032405e-004 
2.039392e-004 
2.044690e-004 
2.048438e-004 
2.051960e-004 
2.054855e-004 
2.056345e-004 
2.057188e-004 
2.058064e-004 
2.057916e-004 
2.056670e-004 
2.054976e-004 
2.052492e-004 
2.048003e-004 
2.042716e-004 
1.000000e+000 
1.000000e+000 
1.140258e-004 
1.139232e-004 
1.139758e-004 
1.141214e-004 
1.142894e-004 
1.145655e-004 
1.149529e-004 
1.153659e-004 
1.158019e-004 
1.163525e-004 
1.169454e-004 
1.175089e-004 
1.181288e-004 
1.188470e-004 
1.195367e-004 
1.202119e-004 
1.210003e-004 
1.218476e-004 
1.226421e-004 
1.235084e-004 
1.245297e-004 
1.255626e-004 
1.265928e-004 
1.278077e-004 
1.291697e-004 
1.305206e-004 
1.319841e-004 
1.337082e-004 
1.355238e-004 
1.373620e-004 
1.394460e-004 
1.417815e-004 
1.441403e-004 
1.466131e-004 
1.494085e-004 
1.523509e-004 
1.552771e-004 
1.584190e-004 
1.618370e-004 
1.652363e-004 
1.686260e-004 
1.722660e-004 
1.759951e-004 
1.795458e-004 
1.831193e-004 
1.868450e-004 
1.903901e-004 
1.936690e-004 
1.969728e-004 
2.001943e-004 
2.029954e-004 
2.055332e-004 
2.080092e-004 
2.101115e-004 
2.116899e-004 
2.130509e-004 
2.141663e-004 
2.146959e-004 
2.147650e-004 
2.146288e-004 
2.140446e-004 
2.128579e-004 
2.113737e-004 
2.096342e-004 
2.073631e-004 
2.046813e-004 
2.018574e-004 
1.987353e-004 
1.952148e-004 
1.915783e-004 
1.879007e-004 
1.840068e-004 
1.800287e-004 
1.761929e-004 
1.724140e-004 
1.686667e-004 
1.651714e-004 
1.619792e-004 
1.590062e-004 
1.563672e-004 
1.541829e-004 
1.523945e-004 
1.510136e-004 
1.501404e-004 
1.497529e-004 
1.498073e-004 
1.503457e-004 
1.513507e-004 
1.527548e-004 
1.545535e-004 
1.567175e-004 
1.591602e-004 
1.618498e-004 
1.647592e-004 
1.677921e-004 
1.708920e-004 
1.740520e-004 
1.771963e-004 
1.802453e-004 
1.832049e-004 
1.860521e-004 
1.887065e-004 
1.911598e-004 
1.934453e-004 
1.955174e-004 
1.973430e-004 
1.989729e-004 
2.004241e-004 
2.016517e-004 
2.026848e-004 
2.035832e-004 
2.043314e-004 
2.049117e-004 
2.053908e-004 
2.057914e-004 
2.060805e-004 
2.062759e-004 
2.064375e-004 
2.065353e-004 
2.065491e-004 
2.065072e-004 
2.064238e-004 
2.062372e-004 
2.059734e-004 
2.056422e-004 
2.051482e-004 
1.000000e+000 
1.000000e+000 
1.131147e-004 
1.130954e-004 
1.131396e-004 
1.133268e-004 
1.135799e-004 
1.138735e-004 
1.142565e-004 
1.147324e-004 
1.152142e-004 
1.157312e-004 
1.163321e-004 
1.169674e-004 
1.175822e-004 
1.182504e-004 
1.189881e-004 
1.197226e-004 
1.204622e-004 
1.212945e-004 
1.221864e-004 
1.230840e-004 
1.240561e-004 
1.251610e-004 
1.263291e-004 
1.275569e-004 
1.289404e-004 
1.304819e-004 
1.321079e-004 
1.338708e-004 
1.358510e-004 
1.379957e-004 
1.402580e-004 
1.427262e-004 
1.454329e-004 
1.482877e-004 
1.512842e-004 
1.545164e-004 
1.579522e-004 
1.614847e-004 
1.651504e-004 
1.690208e-004 
1.729925e-004 
1.769679e-004 
1.810282e-004 
1.851919e-004 
1.892909e-004 
1.932778e-004 
1.972701e-004 
2.011971e-004 
2.048614e-004 
2.083167e-004 
2.116738e-004 
2.147473e-004 
2.173930e-004 
2.197859e-004 
2.219452e-004 
2.236031e-004 
2.247759e-004 
2.256967e-004 
2.262159e-004 
2.261069e-004 
2.255980e-004 
2.248330e-004 
2.235146e-004 
2.216261e-004 
2.195191e-004 
2.171099e-004 
2.141218e-004 
2.108278e-004 
2.074836e-004 
2.037939e-004 
1.997288e-004 
1.957216e-004 
1.917412e-004 
1.874959e-004 
1.832857e-004 
1.794148e-004 
1.755929e-004 
1.717910e-004 
1.684497e-004 
1.655316e-004 
1.627449e-004 
1.603694e-004 
1.586567e-004 
1.572991e-004 
1.562533e-004 
1.558698e-004 
1.560440e-004 
1.564821e-004 
1.573849e-004 
1.588841e-004 
1.606591e-004 
1.626398e-004 
1.650499e-004 
1.677374e-004 
1.704377e-004 
1.732768e-004 
1.763140e-004 
1.792813e-004 
1.821182e-004 
1.849853e-004 
1.877716e-004 
1.902902e-004 
1.926483e-004 
1.949183e-004 
1.969313e-004 
1.986632e-004 
2.002658e-004 
2.017037e-004 
2.028606e-004 
2.038364e-004 
2.047262e-004 
2.054374e-004 
2.059502e-004 
2.063994e-004 
2.067881e-004 
2.070295e-004 
2.071805e-004 
2.073356e-004 
2.074216e-004 
2.073977e-004 
2.073473e-004 
2.072924e-004 
2.071214e-004 
2.068272e-004 
2.064695e-004 
2.060652e-004 
1.000000e+000 
1.000000e+000 
1.120378e-004 
1.121255e-004 
1.122554e-004 
1.124499e-004 
1.127634e-004 
1.131404e-004 
1.135150e-004 
1.139872e-004 
1.145508e-004 
1.150973e-004 
1.156533e-004 
1.163240e-004 
1.170132e-004 
1.176533e-004 
1.183678e-004 
1.191880e-004 
1.199678e-004 
1.207561e-004 
1.217022e-004 
1.227188e-004 
1.237024e-004 
1.248237e-004 
1.261509e-004 
1.275110e-004 
1.289313e-004 
1.306238e-004 
1.325056e-004 
1.344205e-004 
1.365459e-004 
1.390089e-004 
1.415946e-004 
1.442749e-004 
1.472991e-004 
1.506115e-004 
1.539718e-004 
1.575253e-004 
1.614503e-004 
1.655062e-004 
1.695653e-004 
1.738839e-004 
1.784447e-004 
1.829333e-004 
1.874181e-004 
1.921207e-004 
1.968068e-004 
2.012564e-004 
2.056994e-004 
2.101782e-004 
2.143531e-004 
2.182188e-004 
2.220216e-004 
2.255821e-004 
2.286417e-004 
2.313947e-004 
2.339403e-004 
2.359831e-004 
2.374833e-004 
2.386860e-004 
2.394870e-004 
2.396653e-004 
2.393852e-004 
2.387730e-004 
2.376265e-004 
2.359283e-004 
2.338927e-004 
2.314815e-004 
2.285737e-004 
2.253178e-004 
2.218254e-004 
2.180079e-004 
2.139126e-004 
2.096950e-004 
2.053572e-004 
2.009048e-004 
1.964661e-004 
1.920968e-004 
1.878109e-004 
1.837123e-004 
1.798608e-004 
1.762631e-004 
1.730182e-004 
1.701889e-004 
1.677373e-004 
1.657292e-004 
1.642575e-004 
1.632465e-004 
1.626710e-004 
1.626418e-004 
1.631078e-004 
1.639324e-004 
1.651786e-004 
1.668714e-004 
1.688275e-004 
1.709938e-004 
1.734548e-004 
1.760874e-004 
1.787276e-004 
1.814384e-004 
1.842223e-004 
1.868944e-004 
1.894243e-004 
1.919083e-004 
1.942519e-004 
1.963370e-004 
1.982542e-004 
2.000455e-004 
2.015866e-004 
2.028835e-004 
2.040586e-004 
2.050751e-004 
2.058541e-004 
2.064962e-004 
2.070713e-004 
2.074958e-004 
2.077721e-004 
2.080209e-004 
2.082225e-004 
2.083027e-004 
2.083303e-004 
2.083734e-004 
2.083387e-004 
2.081996e-004 
2.080450e-004 
2.078714e-004 
2.075646e-004 
2.071143e-004 
1.000000e+000 
1.000000e+000 
1.109259e-004 
1.110740e-004 
1.112946e-004 
1.115491e-004 
1.118603e-004 
1.122899e-004 
1.127557e-004 
1.132244e-004 
1.137650e-004 
1.143923e-004 