# vtk DataFile Version 2.0
2D-ADE data file 
ASCII
DATASET RECTILINEAR_GRID
DIMENSIONS 128 128 1
X_COORDINATES 128 int
0 1 2 3 4 5 6 7 8 9 10 11 12 13 14 15 16 17 18 19 20 21 22 23 24 25 26 27 28 29 30 31 32 33 34 35 36 37 38 39 40 41 42 43 44 45 46 47 48 49 50 51 52 53 54 55 56 57 58 59 60 61 62 63 64 65 66 67 68 69 70 71 72 73 74 75 76 77 78 79 80 81 82 83 84 85 86 87 88 89 90 91 92 93 94 95 96 97 98 99 100 101 102 103 104 105 106 107 108 109 110 111 112 113 114 115 116 117 118 119 120 121 122 123 124 125 126 127 
Y_COORDINATES 128 int
0 1 2 3 4 5 6 7 8 9 10 11 12 13 14 15 16 17 18 19 20 21 22 23 24 25 26 27 28 29 30 31 32 33 34 35 36 37 38 39 40 41 42 43 44 45 46 47 48 49 50 51 52 53 54 55 56 57 58 59 60 61 62 63 64 65 66 67 68 69 70 71 72 73 74 75 76 77 78 79 80 81 82 83 84 85 86 87 88 89 90 91 92 93 94 95 96 97 98 99 100 101 102 103 104 105 106 107 108 109 110 111 112 113 114 115 116 117 118 119 120 121 122 123 124 125 126 127 
Z_COORDINATES 1 int
0
POINT_DATA 16384 
SCALARS density double 1
LOOKUP_TABLE default
1.000000e+000 
1.000000e+000 
1.000000e+000 
1.000000e+000 
1.000000e+000 
1.000000e+000 
1.000000e+000 
1.000000e+000 
1.000000e+000 
1.000000e+000 
1.000000e+000 
1.000000e+000 
1.000000e+000 
1.000000e+000 
1.000000e+000 
1.000000e+000 
1.000000e+000 
1.000000e+000 
1.000000e+000 
1.000000e+000 
1.000000e+000 
1.000000e+000 
1.000000e+000 
1.000000e+000 
1.000000e+000 
1.000000e+000 
1.000000e+000 
1.000000e+000 
1.000000e+000 
1.000000e+000 
1.000000e+000 
1.000000e+000 
1.000000e+000 
1.000000e+000 
1.000000e+000 
1.000000e+000 
1.000000e+000 
1.000000e+000 
1.000000e+000 
1.000000e+000 
1.000000e+000 
1.000000e+000 
1.000000e+000 
1.000000e+000 
1.000000e+000 
1.000000e+000 
1.000000e+000 
1.000000e+000 
1.000000e+000 
1.000000e+000 
1.000000e+000 
1.000000e+000 
1.000000e+000 
1.000000e+000 
1.000000e+000 
1.000000e+000 
1.000000e+000 
1.000000e+000 
1.000000e+000 
1.000000e+000 
1.000000e+000 
1.000000e+000 
1.000000e+000 
1.000000e+000 
1.000000e+000 
1.000000e+000 
1.000000e+000 
1.000000e+000 
1.000000e+000 
1.000000e+000 
1.000000e+000 
1.000000e+000 
1.000000e+000 
1.000000e+000 
1.000000e+000 
1.000000e+000 
1.000000e+000 
1.000000e+000 
1.000000e+000 
1.000000e+000 
1.000000e+000 
1.000000e+000 
1.000000e+000 
1.000000e+000 
1.000000e+000 
1.000000e+000 
1.000000e+000 
1.000000e+000 
1.000000e+000 
1.000000e+000 
1.000000e+000 
1.000000e+000 
1.000000e+000 
1.000000e+000 
1.000000e+000 
1.000000e+000 
1.000000e+000 
1.000000e+000 
1.000000e+000 
1.000000e+000 
1.000000e+000 
1.000000e+000 
1.000000e+000 
1.000000e+000 
1.000000e+000 
1.000000e+000 
1.000000e+000 
1.000000e+000 
1.000000e+000 
1.000000e+000 
1.000000e+000 
1.000000e+000 
1.000000e+000 
1.000000e+000 
1.000000e+000 
1.000000e+000 
1.000000e+000 
1.000000e+000 
1.000000e+000 
1.000000e+000 
1.000000e+000 
1.000000e+000 
1.000000e+000 
1.000000e+000 
1.000000e+000 
1.000000e+000 
1.000000e+000 
1.000000e+000 
1.000000e+000 
1.516942e-004 
1.516695e-004 
1.517023e-004 
1.517900e-004 
1.518714e-004 
1.519691e-004 
1.521272e-004 
1.522548e-004 
1.523654e-004 
1.525011e-004 
1.526651e-004 
1.527582e-004 
1.528656e-004 
1.530057e-004 
1.531279e-004 
1.531842e-004 
1.532985e-004 
1.534236e-004 
1.534921e-004 
1.535397e-004 
1.536670e-004 
1.537535e-004 
1.537799e-004 
1.538466e-004 
1.539674e-004 
1.539953e-004 
1.540062e-004 
1.540954e-004 
1.541691e-004 
1.541366e-004 
1.541572e-004 
1.542376e-004 
1.542250e-004 
1.541526e-004 
1.541845e-004 
1.541994e-004 
1.540868e-004 
1.540022e-004 
1.540097e-004 
1.539045e-004 
1.537120e-004 
1.536230e-004 
1.535407e-004 
1.532939e-004 
1.530598e-004 
1.529342e-004 
1.526996e-004 
1.523374e-004 
1.520855e-004 
1.518590e-004 
1.514529e-004 
1.510336e-004 
1.507485e-004 
1.503635e-004 
1.498305e-004 
1.494067e-004 
1.490414e-004 
1.484959e-004 
1.479277e-004 
1.475152e-004 
1.470346e-004 
1.464053e-004 
1.458938e-004 
1.454765e-004 
1.449093e-004 
1.443258e-004 
1.439224e-004 
1.434957e-004 
1.429502e-004 
1.425345e-004 
1.422496e-004 
1.418652e-004 
1.414873e-004 
1.413035e-004 
1.411439e-004 
1.409097e-004 
1.408108e-004 
1.408620e-004 
1.408637e-004 
1.408903e-004 
1.410998e-004 
1.413613e-004 
1.415791e-004 
1.419151e-004 
1.423861e-004 
1.428345e-004 
1.432987e-004 
1.439053e-004 
1.445546e-004 
1.451661e-004 
1.458466e-004 
1.466224e-004 
1.473660e-004 
1.480995e-004 
1.489085e-004 
1.497365e-004 
1.505034e-004 
1.512922e-004 
1.521175e-004 
1.529017e-004 
1.536335e-004 
1.543966e-004 
1.551390e-004 
1.558184e-004 
1.564655e-004 
1.571281e-004 
1.577236e-004 
1.582670e-004 
1.587875e-004 
1.592967e-004 
1.597162e-004 
1.601089e-004 
1.604701e-004 
1.607977e-004 
1.610336e-004 
1.612651e-004 
1.614437e-004 
1.615803e-004 
1.616341e-004 
1.616972e-004 
1.616908e-004 
1.616518e-004 
1.615559e-004 
1.614869e-004 
1.614084e-004 
1.613609e-004 
1.000000e+000 
1.000000e+000 
1.516910e-004 
1.516771e-004 
1.516915e-004 
1.517732e-004 
1.518600e-004 
1.519299e-004 
1.520599e-004 
1.521828e-004 
1.523023e-004 
1.523968e-004 
1.525503e-004 
1.526548e-004 
1.527616e-004 
1.528590e-004 
1.529963e-004 
1.530683e-004 
1.531629e-004 
1.532580e-004 
1.533640e-004 
1.534126e-004 
1.535047e-004 
1.535887e-004 
1.536595e-004 
1.536986e-004 
1.537870e-004 
1.538448e-004 
1.538829e-004 
1.539184e-004 
1.539864e-004 
1.540034e-004 
1.540133e-004 
1.540356e-004 
1.540587e-004 
1.540268e-004 
1.540068e-004 
1.539920e-004 
1.539487e-004 
1.538644e-004 
1.538010e-004 
1.537206e-004 
1.535989e-004 
1.534559e-004 
1.533260e-004 
1.531586e-004 
1.529535e-004 
1.527388e-004 
1.525213e-004 
1.522581e-004 
1.519653e-004 
1.516658e-004 
1.513531e-004 
1.509945e-004 
1.506121e-004 
1.502286e-004 
1.498286e-004 
1.493812e-004 
1.489222e-004 
1.484770e-004 
1.480071e-004 
1.474922e-004 
1.469975e-004 
1.465272e-004 
1.460144e-004 
1.454840e-004 
1.450176e-004 
1.445608e-004 
1.440552e-004 
1.435952e-004 
1.432204e-004 
1.428190e-004 
1.424066e-004 
1.421100e-004 
1.418692e-004 
1.415837e-004 
1.413702e-004 
1.412958e-004 
1.412150e-004 
1.411286e-004 
1.411920e-004 
1.413448e-004 
1.414523e-004 
1.416401e-004 
1.419870e-004 
1.423357e-004 
1.426648e-004 
1.431437e-004 
1.437080e-004 
1.442178e-004 
1.447775e-004 
1.454828e-004 
1.461676e-004 
1.468101e-004 
1.475540e-004 
1.483659e-004 
1.490878e-004 
1.498261e-004 
1.506531e-004 
1.514508e-004 
1.521563e-004 
1.529294e-004 
1.537193e-004 
1.544225e-004 
1.550767e-004 
1.558046e-004 
1.564613e-004 
1.570379e-004 
1.576071e-004 
1.582124e-004 
1.586873e-004 
1.591341e-004 
1.595788e-004 
1.600084e-004 
1.602945e-004 
1.606130e-004 
1.608927e-004 
1.611255e-004 
1.612375e-004 
1.614204e-004 
1.615083e-004 
1.615538e-004 
1.615218e-004 
1.615670e-004 
1.614876e-004 
1.614083e-004 
1.613629e-004 
1.613593e-004 
1.000000e+000 
1.000000e+000 
1.516343e-004 
1.516705e-004 
1.516886e-004 
1.517138e-004 
1.518055e-004 
1.519177e-004 
1.519876e-004 
1.520836e-004 
1.522312e-004 
1.523348e-004 
1.524115e-004 
1.525407e-004 
1.526766e-004 
1.527406e-004 
1.528271e-004 
1.529654e-004 
1.530546e-004 
1.530934e-004 
1.532036e-004 
1.533218e-004 
1.533574e-004 
1.534041e-004 
1.535307e-004 
1.535969e-004 
1.535979e-004 
1.536742e-004 
1.537812e-004 
1.537776e-004 
1.537767e-004 
1.538714e-004 
1.539096e-004 
1.538466e-004 
1.538660e-004 
1.539311e-004 
1.538674e-004 
1.537775e-004 
1.538047e-004 
1.537760e-004 
1.536145e-004 
1.535256e-004 
1.535067e-004 
1.533399e-004 
1.531180e-004 
1.530233e-004 
1.528865e-004 
1.525848e-004 
1.523434e-004 
1.521924e-004 
1.518905e-004 
1.515036e-004 
1.512516e-004 
1.509764e-004 
1.505225e-004 
1.501136e-004 
1.498170e-004 
1.493824e-004 
1.488497e-004 
1.484548e-004 
1.480662e-004 
1.475092e-004 
1.469923e-004 
1.466070e-004 
1.461193e-004 
1.455443e-004 
1.451118e-004 
1.447208e-004 
1.442018e-004 
1.437315e-004 
1.434084e-004 
1.430345e-004 
1.426088e-004 
1.423280e-004 
1.421217e-004 
1.418453e-004 
1.416325e-004 
1.415697e-004 
1.415062e-004 
1.414314e-004 
1.414910e-004 
1.416399e-004 
1.417676e-004 
1.419612e-004 
1.422826e-004 
1.426297e-004 
1.429847e-004 
1.434409e-004 
1.439701e-004 
1.444971e-004 
1.450661e-004 
1.457174e-004 
1.463859e-004 
1.470540e-004 
1.477703e-004 
1.485227e-004 
1.492604e-004 
1.500041e-004 
1.507736e-004 
1.515376e-004 
1.522754e-004 
1.530154e-004 
1.537492e-004 
1.544538e-004 
1.551286e-004 
1.557928e-004 
1.564258e-004 
1.570215e-004 
1.575831e-004 
1.581215e-004 
1.586150e-004 
1.590704e-004 
1.594863e-004 
1.598722e-004 
1.602071e-004 
1.605047e-004 
1.607595e-004 
1.609827e-004 
1.611514e-004 
1.612858e-004 
1.613803e-004 
1.614441e-004 
1.614565e-004 
1.614479e-004 
1.614219e-004 
1.613699e-004 
1.613022e-004 
1.612551e-004 
1.000000e+000 
1.000000e+000 
1.515735e-004 
1.515850e-004 
1.516320e-004 
1.516808e-004 
1.517403e-004 
1.518417e-004 
1.519346e-004 
1.520233e-004 
1.521220e-004 
1.522456e-004 
1.523380e-004 
1.524309e-004 
1.525374e-004 
1.526492e-004 
1.527238e-004 
1.528136e-004 
1.529152e-004 
1.530030e-004 
1.530627e-004 
1.531514e-004 
1.532396e-004 
1.533009e-004 
1.533534e-004 
1.534383e-004 
1.535019e-004 
1.535379e-004 
1.535861e-004 
1.536542e-004 
1.536812e-004 
1.536934e-004 
1.537300e-004 
1.537608e-004 
1.537415e-004 
1.537280e-004 
1.537353e-004 
1.537066e-004 
1.536346e-004 
1.535879e-004 
1.535406e-004 
1.534336e-004 
1.533061e-004 
1.532115e-004 
1.530817e-004 
1.528862e-004 
1.527026e-004 
1.525391e-004 
1.523033e-004 
1.520222e-004 
1.517819e-004 
1.515244e-004 
1.511745e-004 
1.508264e-004 
1.505247e-004 
1.501538e-004 
1.497093e-004 
1.493229e-004 
1.489495e-004 
1.484698e-004 
1.479828e-004 
1.475842e-004 
1.471339e-004 
1.465937e-004 
1.461354e-004 
1.457382e-004 
1.452361e-004 
1.447297e-004 
1.443612e-004 
1.439762e-004 
1.435003e-004 
1.431369e-004 
1.428873e-004 
1.425515e-004 
1.422226e-004 
1.420763e-004 
1.419517e-004 
1.417470e-004 
1.416764e-004 
1.417572e-004 
1.417729e-004 
1.418017e-004 
1.420300e-004 
1.423009e-004 
1.424979e-004 
1.428223e-004 
1.433015e-004 
1.437208e-004 
1.441401e-004 
1.447339e-004 
1.453647e-004 
1.459096e-004 
1.465452e-004 
1.473019e-004 
1.479900e-004 
1.486428e-004 
1.494205e-004 
1.502081e-004 
1.508940e-004 
1.516149e-004 
1.524172e-004 
1.531336e-004 
1.537862e-004 
1.545055e-004 
1.552201e-004 
1.558155e-004 
1.564105e-004 
1.570458e-004 
1.576032e-004 
1.580685e-004 
1.585741e-004 
1.590577e-004 
1.594379e-004 
1.597780e-004 
1.601569e-004 
1.604526e-004 
1.606684e-004 
1.608837e-004 
1.611041e-004 
1.612096e-004 
1.612870e-004 
1.613741e-004 
1.614278e-004 
1.613748e-004 
1.613524e-004 
1.613374e-004 
1.612678e-004 
1.611449e-004 
1.000000e+000 
1.000000e+000 
1.514967e-004 
1.514900e-004 
1.515380e-004 
1.516340e-004 
1.516880e-004 
1.517441e-004 
1.518611e-004 
1.519737e-004 
1.520296e-004 
1.521299e-004 
1.522646e-004 
1.523457e-004 
1.524036e-004 
1.525319e-004 
1.526409e-004 
1.526854e-004 
1.527647e-004 
1.528978e-004 
1.529575e-004 
1.529910e-004 
1.531004e-004 
1.532039e-004 
1.532161e-004 
1.532701e-004 
1.533891e-004 
1.534313e-004 
1.534215e-004 
1.535062e-004 
1.535887e-004 
1.535610e-004 
1.535608e-004 
1.536491e-004 
1.536482e-004 
1.535715e-004 
1.535915e-004 
1.536259e-004 
1.535223e-004 
1.534308e-004 
1.534414e-004 
1.533632e-004 
1.531764e-004 
1.530863e-004 
1.530241e-004 
1.528088e-004 
1.525804e-004 
1.524665e-004 
1.522692e-004 
1.519413e-004 
1.516993e-004 
1.515030e-004 
1.511506e-004 
1.507664e-004 
1.504999e-004 
1.501690e-004 
1.497016e-004 
1.493098e-004 
1.489791e-004 
1.485136e-004 
1.480110e-004 
1.476260e-004 
1.472064e-004 
1.466738e-004 
1.462113e-004 
1.458255e-004 
1.453500e-004 
1.448557e-004 
1.444761e-004 
1.441011e-004 
1.436637e-004 
1.433004e-004 
1.430249e-004 
1.427208e-004 
1.424323e-004 
1.422513e-004 
1.421113e-004 
1.419691e-004 
1.419039e-004 
1.419251e-004 
1.419709e-004 
1.420611e-004 
1.422376e-004 
1.424705e-004 
1.427420e-004 
1.430760e-004 
1.434729e-004 
1.439153e-004 
1.444048e-004 
1.449392e-004 
1.455155e-004 
1.461335e-004 
1.467805e-004 
1.474460e-004 
1.481446e-004 
1.488662e-004 
1.495849e-004 
1.503092e-004 
1.510556e-004 
1.517905e-004 
1.525020e-004 
1.532168e-004 
1.539299e-004 
1.545999e-004 
1.552466e-004 
1.558903e-004 
1.565014e-004 
1.570578e-004 
1.576018e-004 
1.581243e-004 
1.585922e-004 
1.590146e-004 
1.594302e-004 
1.597985e-004 
1.601104e-004 
1.603941e-004 
1.606630e-004 
1.608643e-004 
1.610275e-004 
1.611728e-004 
1.612856e-004 
1.613286e-004 
1.613623e-004 
1.613788e-004 
1.613501e-004 
1.612734e-004 
1.611855e-004 
1.610881e-004 
1.000000e+000 
1.000000e+000 
1.513567e-004 
1.514160e-004 
1.514560e-004 
1.515209e-004 
1.516160e-004 
1.516973e-004 
1.517690e-004 
1.518706e-004 
1.519780e-004 
1.520540e-004 
1.521381e-004 
1.522516e-004 
1.523427e-004 
1.524054e-004 
1.525004e-004 
1.526077e-004 
1.526708e-004 
1.527311e-004 
1.528362e-004 
1.529201e-004 
1.529590e-004 
1.530309e-004 
1.531330e-004 
1.531795e-004 
1.532080e-004 
1.532931e-004 
1.533664e-004 
1.533712e-004 
1.534030e-004 
1.534822e-004 
1.534989e-004 
1.534703e-004 
1.535063e-004 
1.535430e-004 
1.534871e-004 
1.534392e-004 
1.534585e-004 
1.534122e-004 
1.532872e-004 
1.532263e-004 
1.531870e-004 
1.530314e-004 
1.528565e-004 
1.527681e-004 
1.526214e-004 
1.523586e-004 
1.521543e-004 
1.519999e-004 
1.517139e-004 
1.513760e-004 
1.511459e-004 
1.508769e-004 
1.504601e-004 
1.500939e-004 
1.498153e-004 
1.494040e-004 
1.489129e-004 
1.485541e-004 
1.481911e-004 
1.476637e-004 
1.471845e-004 
1.468387e-004 
1.463788e-004 
1.458268e-004 
1.454361e-004 
1.450877e-004 
1.445820e-004 
1.441329e-004 
1.438635e-004 
1.435161e-004 
1.430852e-004 
1.428422e-004 
1.426877e-004 
1.424028e-004 
1.421878e-004 
1.421831e-004 
1.421386e-004 
1.420290e-004 
1.421155e-004 
1.423157e-004 
1.424133e-004 
1.425813e-004 
1.429551e-004 
1.433093e-004 
1.436058e-004 
1.440724e-004 
1.446433e-004 
1.451222e-004 
1.456453e-004 
1.463329e-004 
1.469953e-004 
1.475874e-004 
1.482945e-004 
1.490716e-004 
1.497502e-004 
1.504306e-004 
1.512172e-004 
1.519629e-004 
1.526175e-004 
1.533297e-004 
1.540754e-004 
1.547178e-004 
1.553239e-004 
1.559894e-004 
1.566053e-004 
1.571212e-004 
1.576517e-004 
1.581976e-004 
1.586451e-004 
1.590374e-004 
1.594595e-004 
1.598403e-004 
1.601217e-004 
1.603961e-004 
1.606792e-004 
1.608825e-004 
1.610186e-004 
1.611738e-004 
1.612996e-004 
1.613397e-004 
1.613546e-004 
1.613864e-004 
1.613496e-004 
1.612602e-004 
1.611817e-004 
1.610700e-004 
1.000000e+000 
1.000000e+000 
1.511988e-004 
1.512975e-004 
1.513769e-004 
1.514239e-004 
1.515181e-004 
1.516359e-004 
1.517012e-004 
1.517703e-004 
1.518960e-004 
1.519930e-004 
1.520435e-004 
1.521398e-004 
1.522629e-004 
1.523213e-004 
1.523770e-004 
1.524952e-004 
1.525868e-004 
1.526183e-004 
1.527007e-004 
1.528180e-004 
1.528642e-004 
1.528971e-004 
1.530063e-004 
1.530892e-004 
1.530978e-004 
1.531555e-004 
1.532624e-004 
1.532854e-004 
1.532814e-004 
1.533611e-004 
1.534197e-004 
1.533818e-004 
1.533876e-004 
1.534529e-004 
1.534259e-004 
1.533496e-004 
1.533613e-004 
1.533567e-004 
1.532375e-004 
1.531470e-004 
1.531251e-004 
1.530071e-004 
1.528191e-004 
1.527134e-004 
1.526004e-004 
1.523624e-004 
1.521357e-004 
1.519797e-004 
1.517353e-004 
1.514080e-004 
1.511511e-004 
1.508966e-004 
1.505256e-004 
1.501518e-004 
1.498445e-004 
1.494702e-004 
1.490208e-004 
1.486266e-004 
1.482471e-004 
1.477842e-004 
1.473189e-004 
1.469118e-004 
1.464750e-004 
1.459977e-004 
1.455658e-004 
1.451630e-004 
1.447354e-004 
1.443241e-004 
1.439627e-004 
1.436194e-004 
1.432920e-004 
1.430065e-004 
1.427640e-004 
1.425647e-004 
1.424091e-004 
1.422922e-004 
1.422358e-004 
1.422494e-004 
1.422974e-004 
1.423903e-004 
1.425750e-004 
1.428169e-004 
1.430740e-004 
1.434069e-004 
1.438321e-004 
1.442684e-004 
1.447279e-004 
1.452871e-004 
1.458887e-004 
1.464673e-004 
1.471009e-004 
1.478124e-004 
1.484980e-004 
1.491679e-004 
1.499096e-004 
1.506639e-004 
1.513544e-004 
1.520623e-004 
1.528162e-004 
1.535146e-004 
1.541596e-004 
1.548433e-004 
1.555144e-004 
1.560993e-004 
1.566688e-004 
1.572630e-004 
1.577885e-004 
1.582440e-004 
1.587136e-004 
1.591662e-004 
1.595261e-004 
1.598579e-004 
1.602028e-004 
1.604869e-004 
1.606931e-004 
1.609081e-004 
1.611061e-004 
1.612219e-004 
1.612983e-004 
1.613929e-004 
1.614300e-004 
1.614005e-004 
1.613664e-004 
1.613177e-004 
1.611764e-004 
1.610121e-004 
1.000000e+000 
1.000000e+000 
1.510867e-004 
1.511539e-004 
1.512558e-004 
1.513637e-004 
1.514334e-004 
1.515193e-004 
1.516395e-004 
1.517276e-004 
1.517880e-004 
1.518931e-004 
1.520041e-004 
1.520604e-004 
1.521280e-004 
1.522469e-004 
1.523267e-004 
1.523635e-004 
1.524566e-004 
1.525700e-004 
1.526101e-004 
1.526552e-004 
1.527737e-004 
1.528533e-004 
1.528647e-004 
1.529408e-004 
1.530578e-004 
1.530822e-004 
1.530915e-004 
1.531964e-004 
1.532681e-004 
1.532384e-004 
1.532699e-004 
1.533686e-004 
1.533572e-004 
1.532979e-004 
1.533516e-004 
1.533865e-004 
1.532826e-004 
1.532242e-004 
1.532625e-004 
1.531810e-004 
1.530095e-004 
1.529610e-004 
1.529180e-004 
1.527018e-004 
1.525045e-004 
1.524345e-004 
1.522472e-004 
1.519253e-004 
1.517294e-004 
1.515726e-004 
1.512192e-004 
1.508535e-004 
1.506457e-004 
1.503382e-004 
1.498611e-004 
1.495093e-004 
1.492379e-004 
1.487667e-004 
1.482594e-004 
1.479394e-004 
1.475544e-004 
1.469876e-004 
1.465487e-004 
1.462354e-004 
1.457454e-004 
1.452152e-004 
1.448993e-004 
1.445652e-004 
1.440678e-004 
1.437081e-004 
1.435129e-004 
1.431858e-004 
1.428357e-004 
1.427153e-004 
1.426212e-004 
1.424037e-004 
1.423301e-004 
1.424372e-004 
1.424593e-004 
1.424785e-004 
1.427152e-004 
1.429996e-004 
1.431957e-004 
1.435192e-004 
1.440032e-004 
1.444274e-004 
1.448480e-004 
1.454386e-004 
1.460657e-004 
1.466150e-004 
1.472468e-004 
1.479887e-004 
1.486697e-004 
1.493231e-004 
1.500799e-004 
1.508439e-004 
1.515217e-004 
1.522283e-004 
1.529913e-004 
1.536840e-004 
1.543219e-004 
1.550064e-004 
1.556746e-004 
1.562516e-004 
1.568178e-004 
1.574060e-004 
1.579245e-004 
1.583755e-004 
1.588390e-004 
1.592814e-004 
1.596393e-004 
1.599669e-004 
1.603018e-004 
1.605810e-004 
1.607911e-004 
1.609971e-004 
1.611879e-004 
1.613083e-004 
1.613868e-004 
1.614692e-004 
1.615084e-004 
1.614773e-004 
1.614278e-004 
1.613758e-004 
1.612604e-004 
1.610698e-004 
1.000000e+000 
1.000000e+000 
1.509501e-004 
1.510320e-004 
1.511327e-004 
1.512702e-004 
1.513694e-004 
1.514377e-004 
1.515479e-004 
1.516674e-004 
1.517316e-004 
1.518037e-004 
1.519204e-004 
1.520061e-004 
1.520514e-004 
1.521417e-004 
1.522491e-004 
1.523011e-004 
1.523539e-004 
1.524619e-004 
1.525429e-004 
1.525771e-004 
1.526549e-004 
1.527612e-004 
1.528068e-004 
1.528454e-004 
1.529436e-004 
1.530194e-004 
1.530358e-004 
1.530918e-004 
1.531818e-004 
1.532066e-004 
1.532098e-004 
1.532733e-004 
1.533166e-004 
1.532886e-004 
1.532883e-004 
1.533254e-004 
1.532939e-004 
1.532254e-004 
1.532094e-004 
1.531773e-004 
1.530657e-004 
1.529648e-004 
1.528985e-004 
1.527685e-004 
1.525880e-004 
1.524438e-004 
1.522887e-004 
1.520583e-004 
1.518187e-004 
1.516043e-004 
1.513424e-004 
1.510279e-004 
1.507260e-004 
1.504212e-004 
1.500648e-004 
1.496842e-004 
1.493139e-004 
1.489288e-004 
1.485087e-004 
1.480770e-004 
1.476554e-004 
1.472311e-004 
1.467815e-004 
1.463282e-004 
1.459094e-004 
1.454978e-004 
1.450582e-004 
1.446491e-004 
1.443060e-004 
1.439533e-004 
1.435890e-004 
1.433168e-004 
1.431064e-004 
1.428614e-004 
1.426683e-004 
1.426081e-004 
1.425571e-004 
1.424884e-004 
1.425548e-004 
1.427226e-004 
1.428469e-004 
1.430294e-004 
1.433774e-004 
1.437358e-004 
1.440591e-004 
1.445217e-004 
1.450869e-004 
1.455864e-004 
1.461215e-004 
1.468065e-004 
1.474797e-004 
1.480856e-004 
1.487951e-004 
1.495768e-004 
1.502639e-004 
1.509444e-004 
1.517311e-004 
1.524789e-004 
1.531277e-004 
1.538314e-004 
1.545745e-004 
1.552056e-004 
1.557941e-004 
1.564488e-004 
1.570536e-004 
1.575452e-004 
1.580568e-004 
1.585911e-004 
1.590179e-004 
1.593837e-004 
1.597944e-004 
1.601621e-004 
1.604204e-004 
1.606793e-004 
1.609607e-004 
1.611495e-004 
1.612715e-004 
1.614275e-004 
1.615534e-004 
1.615754e-004 
1.615864e-004 
1.616210e-004 
1.615717e-004 
1.614385e-004 
1.613161e-004 
1.611833e-004 
1.000000e+000 
1.000000e+000 
1.507762e-004 
1.509442e-004 
1.510547e-004 
1.511417e-004 
1.512802e-004 
1.514083e-004 
1.514726e-004 
1.515628e-004 
1.516955e-004 
1.517710e-004 
1.518146e-004 
1.519263e-004 
1.520344e-004 
1.520652e-004 
1.521278e-004 
1.522574e-004 
1.523206e-004 
1.523385e-004 
1.524450e-004 
1.525627e-004 
1.525783e-004 
1.526238e-004 
1.527640e-004 
1.528310e-004 
1.528229e-004 
1.529199e-004 
1.530479e-004 
1.530445e-004 
1.530526e-004 
1.531856e-004 
1.532432e-004 
1.531854e-004 
1.532374e-004 
1.533491e-004 
1.533004e-004 
1.532311e-004 
1.533133e-004 
1.533294e-004 
1.531837e-004 
1.531401e-004 
1.531902e-004 
1.530599e-004 
1.528657e-004 
1.528433e-004 
1.527754e-004 
1.525034e-004 
1.523133e-004 
1.522527e-004 
1.520064e-004 
1.516516e-004 
1.514793e-004 
1.512932e-004 
1.508756e-004 
1.505148e-004 
1.503162e-004 
1.499470e-004 
1.494380e-004 
1.491149e-004 
1.488175e-004 
1.482894e-004 
1.478008e-004 
1.475017e-004 
1.470690e-004 
1.464950e-004 
1.461094e-004 
1.457915e-004 
1.452786e-004 
1.448079e-004 
1.445450e-004 
1.442020e-004 
1.437515e-004 
1.434917e-004 
1.433331e-004 
1.430411e-004 
1.428097e-004 
1.427862e-004 
1.427344e-004 
1.426255e-004 
1.426966e-004 
1.428779e-004 
1.429848e-004 
1.431620e-004 
1.435158e-004 
1.438682e-004 
1.441965e-004 
1.446654e-004 
1.452190e-004 
1.457268e-004 
1.462848e-004 
1.469580e-004 
1.476231e-004 
1.482631e-004 
1.489812e-004 
1.497364e-004 
1.504427e-004 
1.511588e-004 
1.519233e-004 
1.526567e-004 
1.533468e-004 
1.540571e-004 
1.547626e-004 
1.554090e-004 
1.560321e-004 
1.566578e-004 
1.572392e-004 
1.577668e-004 
1.582813e-004 
1.587723e-004 
1.592065e-004 
1.596033e-004 
1.599839e-004 
1.603239e-004 
1.606136e-004 
1.608770e-004 
1.611160e-004 
1.613104e-004 
1.614635e-004 
1.615935e-004 
1.616932e-004 
1.617479e-004 
1.617641e-004 
1.617542e-004 
1.617047e-004 
1.616113e-004 
1.614807e-004 
1.613034e-004 
1.000000e+000 
1.000000e+000 
1.506362e-004 
1.508049e-004 
1.509676e-004 
1.510796e-004 
1.511936e-004 
1.513340e-004 
1.514393e-004 
1.515115e-004 
1.516156e-004 
1.517274e-004 
1.517903e-004 
1.518532e-004 
1.519577e-004 
1.520406e-004 
1.520836e-004 
1.521606e-004 
1.522637e-004 
1.523214e-004 
1.523685e-004 
1.524663e-004 
1.525558e-004 
1.525969e-004 
1.526638e-004 
1.527696e-004 
1.528325e-004 
1.528691e-004 
1.529545e-004 
1.530433e-004 
1.530743e-004 
1.531144e-004 
1.531989e-004 
1.532461e-004 
1.532478e-004 
1.532868e-004 
1.533398e-004 
1.533304e-004 
1.533057e-004 
1.533235e-004 
1.533154e-004 
1.532441e-004 
1.531872e-004 
1.531552e-004 
1.530652e-004 
1.529296e-004 
1.528260e-004 
1.527172e-004 
1.525334e-004 
1.523303e-004 
1.521635e-004 
1.519579e-004 
1.516751e-004 
1.514054e-004 
1.511639e-004 
1.508487e-004 
1.504746e-004 
1.501505e-004 
1.498275e-004 
1.494032e-004 
1.489705e-004 
1.486146e-004 
1.482073e-004 
1.477065e-004 
1.472765e-004 
1.469089e-004 
1.464343e-004 
1.459378e-004 
1.455799e-004 
1.452139e-004 
1.447372e-004 
1.443611e-004 
1.441190e-004 
1.437836e-004 
1.434272e-004 
1.432696e-004 
1.431520e-004 
1.429238e-004 
1.428237e-004 
1.429117e-004 
1.429240e-004 
1.429199e-004 
1.431451e-004 
1.434348e-004 
1.436150e-004 
1.439252e-004 
1.444307e-004 
1.448616e-004 
1.452644e-004 
1.458761e-004 
1.465388e-004 
1.470797e-004 
1.477144e-004 
1.485050e-004 
1.492038e-004 
1.498430e-004 
1.506326e-004 
1.514396e-004 
1.521059e-004 
1.528115e-004 
1.536193e-004 
1.543212e-004 
1.549323e-004 
1.556345e-004 
1.563306e-004 
1.568810e-004 
1.574273e-004 
1.580402e-004 
1.585530e-004 
1.589626e-004 
1.594253e-004 
1.598821e-004 
1.602063e-004 
1.605045e-004 
1.608549e-004 
1.611278e-004 
1.612980e-004 
1.615018e-004 
1.617101e-004 
1.618054e-004 
1.618584e-004 
1.619575e-004 
1.619965e-004 
1.619333e-004 
1.618787e-004 
1.618277e-004 
1.616591e-004 
1.614382e-004 
1.000000e+000 
1.000000e+000 
1.505556e-004 
1.506906e-004 
1.508534e-004 
1.510417e-004 
1.511524e-004 
1.512420e-004 
1.513943e-004 
1.515151e-004 
1.515597e-004 
1.516520e-004 
1.517880e-004 
1.518410e-004 
1.518732e-004 
1.519957e-004 
1.520955e-004 
1.521056e-004 
1.521768e-004 
1.523176e-004 
1.523635e-004 
1.523769e-004 
1.525067e-004 
1.526234e-004 
1.526225e-004 
1.526853e-004 
1.528461e-004 
1.528970e-004 
1.528866e-004 
1.530141e-004 
1.531436e-004 
1.531192e-004 
1.531466e-004 
1.533037e-004 
1.533400e-004 
1.532741e-004 
1.533587e-004 
1.534691e-004 
1.533896e-004 
1.533356e-004 
1.534417e-004 
1.534270e-004 
1.532633e-004 
1.532502e-004 
1.532930e-004 
1.531191e-004 
1.529336e-004 
1.529310e-004 
1.528207e-004 
1.525198e-004 
1.523557e-004 
1.522789e-004 
1.519766e-004 
1.516249e-004 
1.514664e-004 
1.512263e-004 
1.507740e-004 
1.504377e-004 
1.502150e-004 
1.497845e-004 
1.492831e-004 
1.489742e-004 
1.486202e-004 
1.480681e-004 
1.476177e-004 
1.472994e-004 
1.468207e-004 
1.462833e-004 
1.459318e-004 
1.455775e-004 
1.450809e-004 
1.446880e-004 
1.444350e-004 
1.440911e-004 
1.437336e-004 
1.435497e-004 
1.433998e-004 
1.431871e-004 
1.430867e-004 
1.431152e-004 
1.431200e-004 
1.431599e-004 
1.433431e-004 
1.435741e-004 
1.438065e-004 
1.441394e-004 
1.445623e-004 
1.449959e-004 
1.454802e-004 
1.460506e-004 
1.466490e-004 
1.472677e-004 
1.479439e-004 
1.486497e-004 
1.493590e-004 
1.500965e-004 
1.508520e-004 
1.515956e-004 
1.523428e-004 
1.530963e-004 
1.538234e-004 
1.545302e-004 
1.552344e-004 
1.559075e-004 
1.565377e-004 
1.571535e-004 
1.577445e-004 
1.582813e-004 
1.587852e-004 
1.592731e-004 
1.597119e-004 
1.601004e-004 
1.604719e-004 
1.608121e-004 
1.610943e-004 
1.613483e-004 
1.615864e-004 
1.617750e-004 
1.619176e-004 
1.620491e-004 
1.621465e-004 
1.621880e-004 
1.622030e-004 
1.621989e-004 
1.621343e-004 
1.620272e-004 
1.619060e-004 
1.617215e-004 
1.000000e+000 
1.000000e+000 
1.504304e-004 
1.506247e-004 
1.507866e-004 
1.509594e-004 
1.511240e-004 
1.512368e-004 
1.513393e-004 
1.514716e-004 
1.515774e-004 
1.516376e-004 
1.517240e-004 
1.518357e-004 
1.518980e-004 
1.519431e-004 
1.520422e-004 
1.521373e-004 
1.521743e-004 
1.522377e-004 
1.523550e-004 
1.524267e-004 
1.524603e-004 
1.525594e-004 
1.526772e-004 
1.527206e-004 
1.527726e-004 
1.529004e-004 
1.529900e-004 
1.530115e-004 
1.530940e-004 
1.532203e-004 
1.532589e-004 
1.532742e-004 
1.533785e-004 
1.534615e-004 
1.534433e-004 
1.534660e-004 
1.535597e-004 
1.535623e-004 
1.534982e-004 
1.535257e-004 
1.535604e-004 
1.534636e-004 
1.533711e-004 
1.533774e-004 
1.533036e-004 
1.531119e-004 
1.530019e-004 
1.529396e-004 
1.527247e-004 
1.524638e-004 
1.523284e-004 
1.521419e-004 
1.517871e-004 
1.514935e-004 
1.513002e-004 
1.509504e-004 
1.505008e-004 
1.502034e-004 
1.499047e-004 
1.494014e-004 
1.489388e-004 
1.486398e-004 
1.482046e-004 
1.476309e-004 
1.472407e-004 
1.469154e-004 
1.463781e-004 
1.458756e-004 
1.456032e-004 
1.452374e-004 
1.447250e-004 
1.444312e-004 
1.442682e-004 
1.439150e-004 
1.436092e-004 
1.435830e-004 
1.435088e-004 
1.433060e-004 
1.433431e-004 
1.435466e-004 
1.435906e-004 
1.436927e-004 
1.440782e-004 
1.444364e-004 
1.446826e-004 
1.451494e-004 
1.457673e-004 
1.462399e-004 
1.467527e-004 
1.474969e-004 
1.482014e-004 
1.487886e-004 
1.495338e-004 
1.503781e-004 
1.510727e-004 
1.517633e-004 
1.526075e-004 
1.533889e-004 
1.540367e-004 
1.547704e-004 
1.555542e-004 
1.561879e-004 
1.567768e-004 
1.574584e-004 
1.580722e-004 
1.585491e-004 
1.590623e-004 
1.596059e-004 
1.600179e-004 
1.603664e-004 
1.607766e-004 
1.611377e-004 
1.613743e-004 
1.616216e-004 
1.619005e-004 
1.620776e-004 
1.621823e-004 
1.623333e-004 
1.624570e-004 
1.624676e-004 
1.624641e-004 
1.624952e-004 
1.624402e-004 
1.622886e-004 
1.621517e-004 
1.620114e-004 
1.000000e+000 
1.000000e+000 
1.503067e-004 
1.505776e-004 
1.507763e-004 
1.508987e-004 
1.510734e-004 
1.512596e-004 
1.513458e-004 
1.514257e-004 
1.515796e-004 
1.516817e-004 
1.517068e-004 
1.518030e-004 
1.519361e-004 
1.519698e-004 
1.520017e-004 
1.521365e-004 
1.522283e-004 
1.522316e-004 
1.523207e-004 
1.524705e-004 
1.525078e-004 
1.525335e-004 
1.526865e-004 
1.528019e-004 
1.528017e-004 
1.528917e-004 
1.530659e-004 
1.531096e-004 
1.531170e-004 
1.532725e-004 
1.533985e-004 
1.533746e-004 
1.534336e-004 
1.536026e-004 
1.536262e-004 
1.535792e-004 
1.536929e-004 
1.537926e-004 
1.537088e-004 
1.536883e-004 
1.538012e-004 
1.537639e-004 
1.536177e-004 
1.536319e-004 
1.536521e-004 
1.534663e-004 
1.533139e-004 
1.533082e-004 
1.531611e-004 
1.528747e-004 
1.527326e-004 
1.526160e-004 
1.522925e-004 
1.519726e-004 
1.517970e-004 
1.515042e-004 
1.510660e-004 
1.507466e-004 
1.504667e-004 
1.500115e-004 
1.495480e-004 
1.492127e-004 
1.487997e-004 
1.482758e-004 
1.478498e-004 
1.474719e-004 
1.469864e-004 
1.465134e-004 
1.461468e-004 
1.457543e-004 
1.453267e-004 
1.449888e-004 
1.447031e-004 
1.444008e-004 
1.441555e-004 
1.439915e-004 
1.438530e-004 
1.437668e-004 
1.437622e-004 
1.438024e-004 
1.439053e-004 
1.440975e-004 
1.443320e-004 
1.446186e-004 
1.450091e-004 
1.454492e-004 
1.459039e-004 
1.464513e-004 
1.470763e-004 
1.476859e-004 
1.483328e-004 
1.490768e-004 
1.498153e-004 
1.505190e-004 
1.512933e-004 
1.521021e-004 
1.528380e-004 
1.535715e-004 
1.543646e-004 
1.551050e-004 
1.557681e-004 
1.564654e-004 
1.571624e-004 
1.577564e-004 
1.583180e-004 
1.589126e-004 
1.594391e-004 
1.598738e-004 
1.603232e-004 
1.607655e-004 
1.611055e-004 
1.614061e-004 
1.617341e-004 
1.620027e-004 
1.621838e-004 
1.623772e-004 
1.625680e-004 
1.626671e-004 
1.627261e-004 
1.628123e-004 
1.628417e-004 
1.627823e-004 
1.627265e-004 
1.626687e-004 
1.625119e-004 
1.622907e-004 
1.000000e+000 
1.000000e+000 
1.502711e-004 
1.504949e-004 
1.507350e-004 
1.509358e-004 
1.510736e-004 
1.512231e-004 
1.513865e-004 
1.514858e-004 
1.515592e-004 
1.516849e-004 