# vtk DataFile Version 2.0
2D-ADE data file 
ASCII
DATASET RECTILINEAR_GRID
DIMENSIONS 128 128 1
X_COORDINATES 128 int
0 1 2 3 4 5 6 7 8 9 10 11 12 13 14 15 16 17 18 19 20 21 22 23 24 25 26 27 28 29 30 31 32 33 34 35 36 37 38 39 40 41 42 43 44 45 46 47 48 49 50 51 52 53 54 55 56 57 58 59 60 61 62 63 64 65 66 67 68 69 70 71 72 73 74 75 76 77 78 79 80 81 82 83 84 85 86 87 88 89 90 91 92 93 94 95 96 97 98 99 100 101 102 103 104 105 106 107 108 109 110 111 112 113 114 115 116 117 118 119 120 121 122 123 124 125 126 127 
Y_COORDINATES 128 int
0 1 2 3 4 5 6 7 8 9 10 11 12 13 14 15 16 17 18 19 20 21 22 23 24 25 26 27 28 29 30 31 32 33 34 35 36 37 38 39 40 41 42 43 44 45 46 47 48 49 50 51 52 53 54 55 56 57 58 59 60 61 62 63 64 65 66 67 68 69 70 71 72 73 74 75 76 77 78 79 80 81 82 83 84 85 86 87 88 89 90 91 92 93 94 95 96 97 98 99 100 101 102 103 104 105 106 107 108 109 110 111 112 113 114 115 116 117 118 119 120 121 122 123 124 125 126 127 
Z_COORDINATES 1 int
0
POINT_DATA 16384 
SCALARS density double 1
LOOKUP_TABLE default
1.000000e+000 
1.000000e+000 
1.000000e+000 
1.000000e+000 
1.000000e+000 
1.000000e+000 
1.000000e+000 
1.000000e+000 
1.000000e+000 
1.000000e+000 
1.000000e+000 
1.000000e+000 
1.000000e+000 
1.000000e+000 
1.000000e+000 
1.000000e+000 
1.000000e+000 
1.000000e+000 
1.000000e+000 
1.000000e+000 
1.000000e+000 
1.000000e+000 
1.000000e+000 
1.000000e+000 
1.000000e+000 
1.000000e+000 
1.000000e+000 
1.000000e+000 
1.000000e+000 
1.000000e+000 
1.000000e+000 
1.000000e+000 
1.000000e+000 
1.000000e+000 
1.000000e+000 
1.000000e+000 
1.000000e+000 
1.000000e+000 
1.000000e+000 
1.000000e+000 
1.000000e+000 
1.000000e+000 
1.000000e+000 
1.000000e+000 
1.000000e+000 
1.000000e+000 
1.000000e+000 
1.000000e+000 
1.000000e+000 
1.000000e+000 
1.000000e+000 
1.000000e+000 
1.000000e+000 
1.000000e+000 
1.000000e+000 
1.000000e+000 
1.000000e+000 
1.000000e+000 
1.000000e+000 
1.000000e+000 
1.000000e+000 
1.000000e+000 
1.000000e+000 
1.000000e+000 
1.000000e+000 
1.000000e+000 
1.000000e+000 
1.000000e+000 
1.000000e+000 
1.000000e+000 
1.000000e+000 
1.000000e+000 
1.000000e+000 
1.000000e+000 
1.000000e+000 
1.000000e+000 
1.000000e+000 
1.000000e+000 
1.000000e+000 
1.000000e+000 
1.000000e+000 
1.000000e+000 
1.000000e+000 
1.000000e+000 
1.000000e+000 
1.000000e+000 
1.000000e+000 
1.000000e+000 
1.000000e+000 
1.000000e+000 
1.000000e+000 
1.000000e+000 
1.000000e+000 
1.000000e+000 
1.000000e+000 
1.000000e+000 
1.000000e+000 
1.000000e+000 
1.000000e+000 
1.000000e+000 
1.000000e+000 
1.000000e+000 
1.000000e+000 
1.000000e+000 
1.000000e+000 
1.000000e+000 
1.000000e+000 
1.000000e+000 
1.000000e+000 
1.000000e+000 
1.000000e+000 
1.000000e+000 
1.000000e+000 
1.000000e+000 
1.000000e+000 
1.000000e+000 
1.000000e+000 
1.000000e+000 
1.000000e+000 
1.000000e+000 
1.000000e+000 
1.000000e+000 
1.000000e+000 
1.000000e+000 
1.000000e+000 
1.000000e+000 
1.000000e+000 
1.000000e+000 
1.000000e+000 
1.165892e-004 
1.164921e-004 
1.163532e-004 
1.162709e-004 
1.162226e-004 
1.163757e-004 
1.166157e-004 
1.169791e-004 
1.174075e-004 
1.180066e-004 
1.186608e-004 
1.193819e-004 
1.201809e-004 
1.210902e-004 
1.220108e-004 
1.229759e-004 
1.240348e-004 
1.251479e-004 
1.262586e-004 
1.274383e-004 
1.287203e-004 
1.300148e-004 
1.313344e-004 
1.327654e-004 
1.342820e-004 
1.357909e-004 
1.373800e-004 
1.391005e-004 
1.408615e-004 
1.426229e-004 
1.445179e-004 
1.465131e-004 
1.484934e-004 
1.505086e-004 
1.526718e-004 
1.548503e-004 
1.569755e-004 
1.591747e-004 
1.614655e-004 
1.636579e-004 
1.657914e-004 
1.680008e-004 
1.701678e-004 
1.721373e-004 
1.740635e-004 
1.759888e-004 
1.776950e-004 
1.791586e-004 
1.805762e-004 
1.818303e-004 
1.827175e-004 
1.833799e-004 
1.839312e-004 
1.841238e-004 
1.839038e-004 
1.835049e-004 
1.828639e-004 
1.817382e-004 
1.802820e-004 
1.786693e-004 
1.766828e-004 
1.742490e-004 
1.716482e-004 
1.688751e-004 
1.657083e-004 
1.623074e-004 
1.589023e-004 
1.553260e-004 
1.515235e-004 
1.477859e-004 
1.441591e-004 
1.404641e-004 
1.368577e-004 
1.335705e-004 
1.304824e-004 
1.275514e-004 
1.250245e-004 
1.229483e-004 
1.211720e-004 
1.198062e-004 
1.190124e-004 
1.186824e-004 
1.187487e-004 
1.193628e-004 
1.205183e-004 
1.220703e-004 
1.240400e-004 
1.265032e-004 
1.293306e-004 
1.324338e-004 
1.358548e-004 
1.395642e-004 
1.434083e-004 
1.473756e-004 
1.514698e-004 
1.556061e-004 
1.596771e-004 
1.637220e-004 
1.676919e-004 
1.715172e-004 
1.751511e-004 
1.786511e-004 
1.819334e-004 
1.849897e-004 
1.878061e-004 
1.904416e-004 
1.928008e-004 
1.949464e-004 
1.968550e-004 
1.985915e-004 
2.000576e-004 
2.013736e-004 
2.024713e-004 
2.034392e-004 
2.041650e-004 
2.048092e-004 
2.052426e-004 
2.055931e-004 
2.057166e-004 
2.058080e-004 
2.056931e-004 
2.055394e-004 
2.051946e-004 
2.048901e-004 
2.046140e-004 
2.044878e-004 
1.000000e+000 
1.000000e+000 
1.166760e-004 
1.165757e-004 
1.164624e-004 
1.164837e-004 
1.164508e-004 
1.166192e-004 
1.168262e-004 
1.172209e-004 
1.176088e-004 
1.181747e-004 
1.187911e-004 
1.195037e-004 
1.202402e-004 
1.211057e-004 
1.220013e-004 
1.229350e-004 
1.239311e-004 
1.250110e-004 
1.261045e-004 
1.272354e-004 
1.284637e-004 
1.297362e-004 
1.310314e-004 
1.323985e-004 
1.338719e-004 
1.353599e-004 
1.369054e-004 
1.385515e-004 
1.402787e-004 
1.420103e-004 
1.438382e-004 
1.457580e-004 
1.477145e-004 
1.496846e-004 
1.517621e-004 
1.538798e-004 
1.559926e-004 
1.581267e-004 
1.603287e-004 
1.624948e-004 
1.646230e-004 
1.667480e-004 
1.688529e-004 
1.708455e-004 
1.727594e-004 
1.745971e-004 
1.763073e-004 
1.778375e-004 
1.792211e-004 
1.804257e-004 
1.814097e-004 
1.821484e-004 
1.826515e-004 
1.828892e-004 
1.828442e-004 
1.824890e-004 
1.818330e-004 
1.808814e-004 
1.796139e-004 
1.780029e-004 
1.761052e-004 
1.739428e-004 
1.714675e-004 
1.687047e-004 
1.657666e-004 
1.626339e-004 
1.592651e-004 
1.557884e-004 
1.523008e-004 
1.487207e-004 
1.450965e-004 
1.416216e-004 
1.382857e-004 
1.350139e-004 
1.319811e-004 
1.293180e-004 
1.268996e-004 
1.247626e-004 
1.231195e-004 
1.219325e-004 
1.210692e-004 
1.206943e-004 
1.208992e-004 
1.215096e-004 
1.225013e-004 
1.240551e-004 
1.260622e-004 
1.283571e-004 
1.310275e-004 
1.341352e-004 
1.374448e-004 
1.409221e-004 
1.446620e-004 
1.485778e-004 
1.524553e-004 
1.563989e-004 
1.604038e-004 
1.643262e-004 
1.680665e-004 
1.717877e-004 
1.753578e-004 
1.787020e-004 
1.818194e-004 
1.848513e-004 
1.875850e-004 
1.900905e-004 
1.923747e-004 
1.945380e-004 
1.963493e-004 
1.980246e-004 
1.994824e-004 
2.008252e-004 
2.018294e-004 
2.028164e-004 
2.035592e-004 
2.042308e-004 
2.045962e-004 
2.050382e-004 
2.051833e-004 
2.053237e-004 
2.051957e-004 
2.051967e-004 
2.049030e-004 
2.046936e-004 
2.044922e-004 
2.043973e-004 
1.000000e+000 
1.000000e+000 
1.168046e-004 
1.167033e-004 
1.165803e-004 
1.165397e-004 
1.166152e-004 
1.167679e-004 
1.169704e-004 
1.173187e-004 
1.177643e-004 
1.182638e-004 
1.188347e-004 
1.195380e-004 
1.202809e-004 
1.210488e-004 
1.219103e-004 
1.228615e-004 
1.238043e-004 
1.247894e-004 
1.258889e-004 
1.270249e-004 
1.281474e-004 
1.293657e-004 
1.306936e-004 
1.320124e-004 
1.333618e-004 
1.348560e-004 
1.364158e-004 
1.379499e-004 
1.395863e-004 
1.413684e-004 
1.431474e-004 
1.449268e-004 
1.468645e-004 
1.488818e-004 
1.508376e-004 
1.528513e-004 
1.550156e-004 
1.571436e-004 
1.591930e-004 
1.613461e-004 
1.635524e-004 
1.656024e-004 
1.675991e-004 
1.696775e-004 
1.716394e-004 
1.733724e-004 
1.750821e-004 
1.767515e-004 
1.781273e-004 
1.792719e-004 
1.803719e-004 
1.812368e-004 
1.817056e-004 
1.819873e-004 
1.821221e-004 
1.818443e-004 
1.811906e-004 
1.803864e-004 
1.792899e-004 
1.777268e-004 
1.759118e-004 
1.739406e-004 
1.715902e-004 
1.688939e-004 
1.661017e-004 
1.631368e-004 
1.598634e-004 
1.564911e-004 
1.531522e-004 
1.496944e-004 
1.461654e-004 
1.427987e-004 
1.395693e-004 
1.363937e-004 
1.334472e-004 
1.308469e-004 
1.284976e-004 
1.264391e-004 
1.248301e-004 
1.236522e-004 
1.228430e-004 
1.224967e-004 
1.226613e-004 
1.232587e-004 
1.242791e-004 
1.257751e-004 
1.276976e-004 
1.299777e-004 
1.326130e-004 
1.355862e-004 
1.388163e-004 
1.422575e-004 
1.458829e-004 
1.496420e-004 
1.534655e-004 
1.573215e-004 
1.611679e-004 
1.649643e-004 
1.686624e-004 
1.722438e-004 
1.756739e-004 
1.789396e-004 
1.820080e-004 
1.848816e-004 
1.875417e-004 
1.899987e-004 
1.922275e-004 
1.942559e-004 
1.960718e-004 
1.976990e-004 
1.991151e-004 
2.003699e-004 
2.014401e-004 
2.023586e-004 
2.031022e-004 
2.037323e-004 
2.042020e-004 
2.045563e-004 
2.047729e-004 
2.049081e-004 
2.049047e-004 
2.048279e-004 
2.046921e-004 
2.044990e-004 
2.042767e-004 
2.041013e-004 
1.000000e+000 
1.000000e+000 
1.168890e-004 
1.166854e-004 
1.166140e-004 
1.165746e-004 
1.166426e-004 
1.167862e-004 
1.170345e-004 
1.173423e-004 
1.177779e-004 
1.182792e-004 
1.188465e-004 
1.194847e-004 
1.202153e-004 
1.209811e-004 
1.217945e-004 
1.226817e-004 
1.236226e-004 
1.245873e-004 
1.256083e-004 
1.267026e-004 
1.278285e-004 
1.289950e-004 
1.302367e-004 
1.315454e-004 
1.328850e-004 
1.342941e-004 
1.357867e-004 
1.373363e-004 
1.389292e-004 
1.406102e-004 
1.423646e-004 
1.441652e-004 
1.460181e-004 
1.479540e-004 
1.499380e-004 
1.519517e-004 
1.540072e-004 
1.561157e-004 
1.582333e-004 
1.603457e-004 
1.624636e-004 
1.645837e-004 
1.666520e-004 
1.686543e-004 
1.706071e-004 
1.724891e-004 
1.742295e-004 
1.758300e-004 
1.773169e-004 
1.786329e-004 
1.797036e-004 
1.805751e-004 
1.812623e-004 
1.816599e-004 
1.817389e-004 
1.815965e-004 
1.811896e-004 
1.803989e-004 
1.792989e-004 
1.779872e-004 
1.763381e-004 
1.743083e-004 
1.720757e-004 
1.696509e-004 
1.668808e-004 
1.638804e-004 
1.608362e-004 
1.576297e-004 
1.542068e-004 
1.508206e-004 
1.475290e-004 
1.441611e-004 
1.408542e-004 
1.378494e-004 
1.350247e-004 
1.323105e-004 
1.299794e-004 
1.280902e-004 
1.264445e-004 
1.251584e-004 
1.244521e-004 
1.241687e-004 
1.242035e-004 
1.247746e-004 
1.258927e-004 
1.273215e-004 
1.291230e-004 
1.314398e-004 
1.340869e-004 
1.369201e-004 
1.400898e-004 
1.435576e-004 
1.470961e-004 
1.507160e-004 
1.545233e-004 
1.583400e-004 
1.620463e-004 
1.657436e-004 
1.694255e-004 
1.728991e-004 
1.761966e-004 
1.794024e-004 
1.824274e-004 
1.851630e-004 
1.877391e-004 
1.901547e-004 
1.923183e-004 
1.942247e-004 
1.960151e-004 
1.976005e-004 
1.989567e-004 
2.001322e-004 
2.012248e-004 
2.020957e-004 
2.028140e-004 
2.034114e-004 
2.039383e-004 
2.042473e-004 
2.044902e-004 
2.046339e-004 
2.047120e-004 
2.045904e-004 
2.044889e-004 
2.043258e-004 
2.041100e-004 
2.037736e-004 
1.000000e+000 
1.000000e+000 
1.169405e-004 
1.166991e-004 
1.165487e-004 
1.165306e-004 
1.165812e-004 
1.167266e-004 
1.170022e-004 
1.173209e-004 
1.177054e-004 
1.182088e-004 
1.187980e-004 
1.193941e-004 
1.200691e-004 
1.208515e-004 
1.216501e-004 
1.224558e-004 
1.233684e-004 
1.243492e-004 
1.253048e-004 
1.263171e-004 
1.274526e-004 
1.286037e-004 
1.297432e-004 
1.310089e-004 
1.323746e-004 
1.337164e-004 
1.351108e-004 
1.366717e-004 
1.382690e-004 
1.398437e-004 
1.415507e-004 
1.433981e-004 
1.452093e-004 
1.470472e-004 
1.490587e-004 
1.511170e-004 
1.530982e-004 
1.551731e-004 
1.573791e-004 
1.595067e-004 
1.615664e-004 
1.637458e-004 
1.659223e-004 
1.679175e-004 
1.698808e-004 
1.718963e-004 
1.737281e-004 
1.753364e-004 
1.769206e-004 
1.783935e-004 
1.795331e-004 
1.804636e-004 
1.813036e-004 
1.818373e-004 
1.819856e-004 
1.819531e-004 
1.816992e-004 
1.810158e-004 
1.800036e-004 
1.788121e-004 
1.772829e-004 
1.753490e-004 
1.732052e-004 
1.708675e-004 
1.681922e-004 
1.652790e-004 
1.622826e-004 
1.591277e-004 
1.557945e-004 
1.524528e-004 
1.491518e-004 
1.458356e-004 
1.425985e-004 
1.395604e-004 
1.367093e-004 
1.340669e-004 
1.317378e-004 
1.297580e-004 
1.281279e-004 
1.268976e-004 
1.261042e-004 
1.257486e-004 
1.258470e-004 
1.263990e-004 
1.273898e-004 
1.288218e-004 
1.306727e-004 
1.328844e-004 
1.354439e-004 
1.383329e-004 
1.414713e-004 
1.448012e-004 
1.483251e-004 
1.519759e-004 
1.556642e-004 
1.593763e-004 
1.631041e-004 
1.667505e-004 
1.702778e-004 
1.737054e-004 
1.769984e-004 
1.800788e-004 
1.829770e-004 
1.857058e-004 
1.882192e-004 
1.904904e-004 
1.925887e-004 
1.944926e-004 
1.961759e-004 
1.976581e-004 
1.990058e-004 
2.001620e-004 
2.011444e-004 
2.019866e-004 
2.027265e-004 
2.032902e-004 
2.037458e-004 
2.041024e-004 
2.043681e-004 
2.044766e-004 
2.045361e-004 
2.045172e-004 
2.044081e-004 
2.041720e-004 
2.038332e-004 
2.034751e-004 
1.000000e+000 
1.000000e+000 
1.167848e-004 
1.165277e-004 
1.163941e-004 
1.163928e-004 
1.164562e-004 
1.166035e-004 
1.168401e-004 
1.171935e-004 
1.176026e-004 
1.180705e-004 
1.186261e-004 
1.192583e-004 
1.199159e-004 
1.206278e-004 
1.214165e-004 
1.222430e-004 
1.230861e-004 
1.239958e-004 
1.249709e-004 
1.259647e-004 
1.269955e-004 
1.281125e-004 
1.292839e-004 
1.304776e-004 
1.317440e-004 
1.331075e-004 
1.345134e-004 
1.359606e-004 
1.375127e-004 
1.391537e-004 
1.408239e-004 
1.425609e-004 
1.444156e-004 
1.463273e-004 
1.482556e-004 
1.502713e-004 
1.523840e-004 
1.544979e-004 
1.566171e-004 
1.588232e-004 
1.610584e-004 
1.632219e-004 
1.653791e-004 
1.675796e-004 
1.696915e-004 
1.716606e-004 
1.736032e-004 
1.754832e-004 
1.771315e-004 
1.785938e-004 
1.799815e-004 
1.811448e-004 
1.819640e-004 
1.825941e-004 
1.830551e-004 
1.831260e-004 
1.828337e-004 
1.823717e-004 
1.816105e-004 
1.803815e-004 
1.788865e-004 
1.772276e-004 
1.751699e-004 
1.727348e-004 
1.702018e-004 
1.674878e-004 
1.644081e-004 
1.612067e-004 
1.580602e-004 
1.547463e-004 
1.512919e-004 
1.480266e-004 
1.449029e-004 
1.417374e-004 
1.387834e-004 
1.362349e-004 
1.338771e-004 
1.317268e-004 
1.300887e-004 
1.289030e-004 
1.279780e-004 
1.275166e-004 
1.276549e-004 
1.281641e-004 
1.290196e-004 
1.304341e-004 
1.323031e-004 
1.344213e-004 
1.369064e-004 
1.398169e-004 
1.429221e-004 
1.461628e-004 
1.496657e-004 
1.533185e-004 
1.569342e-004 
1.605834e-004 
1.642981e-004 
1.679008e-004 
1.713395e-004 
1.747197e-004 
1.779720e-004 
1.809721e-004 
1.837829e-004 
1.864638e-004 
1.889044e-004 
1.910861e-004 
1.931081e-004 
1.949607e-004 
1.965592e-004 
1.979702e-004 
1.992582e-004 
2.003715e-004 
2.012823e-004 
2.020877e-004 
2.027893e-004 
2.033357e-004 
2.037469e-004 
2.041037e-004 
2.043544e-004 
2.044811e-004 
2.045177e-004 
2.045054e-004 
2.043481e-004 
2.041281e-004 
2.038364e-004 
2.033743e-004 
1.000000e+000 
1.000000e+000 
1.165460e-004 
1.163482e-004 
1.161811e-004 
1.161260e-004 
1.162166e-004 
1.164134e-004 
1.166358e-004 
1.169724e-004 
1.174130e-004 
1.178890e-004 
1.184035e-004 
1.190338e-004 
1.197096e-004 
1.203807e-004 
1.211219e-004 
1.219574e-004 
1.227824e-004 
1.236203e-004 
1.245683e-004 
1.255677e-004 
1.265400e-004 
1.275904e-004 
1.287647e-004 
1.299420e-004 
1.311314e-004 
1.324672e-004 
1.338939e-004 
1.352998e-004 
1.367961e-004 
1.384613e-004 
1.401525e-004 
1.418464e-004 
1.437034e-004 
1.456823e-004 
1.476296e-004 
1.496405e-004 
1.518277e-004 
1.540348e-004 
1.561908e-004 
1.584611e-004 
1.608297e-004 
1.631042e-004 
1.653417e-004 
1.676745e-004 
1.699525e-004 
1.720538e-004 
1.741248e-004 
1.761757e-004 
1.780035e-004 
1.796188e-004 
1.811568e-004 
1.824971e-004 
1.835007e-004 
1.842815e-004 
1.848763e-004 
1.851187e-004 
1.850003e-004 
1.846436e-004 
1.839846e-004 
1.829235e-004 
1.815508e-004 
1.799222e-004 
1.779559e-004 
1.756661e-004 
1.731520e-004 
1.704134e-004 
1.674382e-004 
1.643014e-004 
1.610584e-004 
1.577283e-004 
1.543669e-004 
1.510281e-004 
1.477567e-004 
1.446265e-004 
1.416796e-004 
1.389356e-004 
1.364825e-004 
1.343856e-004 
1.326178e-004 
1.312231e-004 
1.303050e-004 
1.298311e-004 
1.297502e-004 
1.301566e-004 
1.310692e-004 
1.323638e-004 
1.340458e-004 
1.361921e-004 
1.386878e-004 
1.414213e-004 
1.444602e-004 
1.477776e-004 
1.511978e-004 
1.547070e-004 
1.583610e-004 
1.620310e-004 
1.656005e-004 
1.691417e-004 
1.726351e-004 
1.759366e-004 
1.790469e-004 
1.820484e-004 
1.848521e-004 
1.873866e-004 
1.897359e-004 
1.919303e-004 
1.938660e-004 
1.955723e-004 
1.971393e-004 
1.985353e-004 
1.996961e-004 
2.007192e-004 
2.016394e-004 
2.023964e-004 
2.029866e-004 
2.035192e-004 
2.039540e-004 
2.042493e-004 
2.044438e-004 
2.046096e-004 
2.046500e-004 
2.045924e-004 
2.044523e-004 
2.042147e-004 
2.037774e-004 
2.032840e-004 
1.000000e+000 
1.000000e+000 
1.161655e-004 
1.159198e-004 
1.158348e-004 
1.158351e-004 
1.158985e-004 
1.160877e-004 
1.163695e-004 
1.167036e-004 
1.171094e-004 
1.176210e-004 
1.181683e-004 
1.187397e-004 
1.193910e-004 
1.201105e-004 
1.208237e-004 
1.215719e-004 
1.224088e-004 
1.232748e-004 
1.241312e-004 
1.250654e-004 
1.260888e-004 
1.271155e-004 
1.281715e-004 
1.293531e-004 
1.306049e-004 
1.318582e-004 
1.332058e-004 
1.347001e-004 
1.362297e-004 
1.377893e-004 
1.395056e-004 
1.413449e-004 
1.431851e-004 
1.451090e-004 
1.472146e-004 
1.493735e-004 
1.515173e-004 
1.537980e-004 
1.562157e-004 
1.585869e-004 
1.609517e-004 
1.634622e-004 
1.659821e-004 
1.683584e-004 
1.707468e-004 
1.732028e-004 
1.754836e-004 
1.775633e-004 
1.796483e-004 
1.816246e-004 
1.832523e-004 
1.846799e-004 
1.860398e-004 
1.870642e-004 
1.876619e-004 
1.880968e-004 
1.883145e-004 
1.880247e-004 
1.873704e-004 
1.865744e-004 
1.853911e-004 
1.836955e-004 
1.818043e-004 
1.797422e-004 
1.772196e-004 
1.743862e-004 
1.715367e-004 
1.684764e-004 
1.650855e-004 
1.617089e-004 
1.584276e-004 
1.549867e-004 
1.515412e-004 
1.483990e-004 
1.454052e-004 
1.424594e-004 
1.398779e-004 
1.377355e-004 
1.358082e-004 
1.342218e-004 
1.332144e-004 
1.326307e-004 
1.323679e-004 
1.326457e-004 
1.334727e-004 
1.346345e-004 
1.361878e-004 
1.382547e-004 
1.406647e-004 
1.432998e-004 
1.462693e-004 
1.495273e-004 
1.528817e-004 
1.563377e-004 
1.599456e-004 
1.635627e-004 
1.670901e-004 
1.705909e-004 
1.740307e-004 
1.772818e-004 
1.803527e-004 
1.832947e-004 
1.860309e-004 
1.885126e-004 
1.908043e-004 
1.929156e-004 
1.947821e-004 
1.964302e-004 
1.979210e-004 
1.992318e-004 
2.003381e-004 
2.013011e-004 
2.021462e-004 
2.028437e-004 
2.034041e-004 
2.038835e-004 
2.042693e-004 
2.045430e-004 
2.047292e-004 
2.048622e-004 
2.048900e-004 
2.048091e-004 
2.046448e-004 
2.044163e-004 
2.040473e-004 
2.034837e-004 
1.000000e+000 
1.000000e+000 
1.157179e-004 
1.154977e-004 
1.153800e-004 
1.154119e-004 
1.155079e-004 
1.156910e-004 
1.159976e-004 
1.163721e-004 
1.167702e-004 
1.172637e-004 
1.178405e-004 
1.184231e-004 
1.190348e-004 
1.197413e-004 
1.204735e-004 
1.211920e-004 
1.219787e-004 
1.228453e-004 
1.236989e-004 
1.245782e-004 
1.255694e-004 
1.266100e-004 
1.276440e-004 
1.287777e-004 
1.300359e-004 
1.313143e-004 
1.326404e-004 
1.341279e-004 
1.357114e-004 
1.373134e-004 
1.390393e-004 
1.409374e-004 
1.428834e-004 
1.448822e-004 
1.470560e-004 
1.493510e-004 
1.516553e-004 
1.540561e-004 
1.566134e-004 
1.591981e-004 
1.617714e-004 
1.644437e-004 
1.671723e-004 
1.698253e-004 
1.724430e-004 
1.750845e-004 
1.776327e-004 
1.800171e-004 
1.823069e-004 
1.844786e-004 
1.864150e-004 
1.881150e-004 
1.896172e-004 
1.908534e-004 
1.917620e-004 
1.923675e-004 
1.926678e-004 
1.926176e-004 
1.922041e-004 
1.914378e-004 
1.903260e-004 
1.888729e-004 
1.870661e-004 
1.849237e-004 
1.825113e-004 
1.798371e-004 
1.768764e-004 
1.737185e-004 
1.704589e-004 
1.670530e-004 
1.635263e-004 
1.600518e-004 
1.566570e-004 
1.532691e-004 
1.500335e-004 
1.471059e-004 
1.443903e-004 
1.418921e-004 
1.398350e-004 
1.382183e-004 
1.369005e-004 
1.360268e-004 
1.357367e-004 
1.358543e-004 
1.363369e-004 
1.373790e-004 
1.389088e-004 
1.407182e-004 
1.429089e-004 
1.455571e-004 
1.484310e-004 
1.514504e-004 
1.547583e-004 
1.582445e-004 
1.616941e-004 
1.651813e-004 
1.687597e-004 
1.722216e-004 
1.755015e-004 
1.787313e-004 
1.818393e-004 
1.846641e-004 
1.872893e-004 
1.897949e-004 
1.920462e-004 
1.940093e-004 
1.958253e-004 
1.974783e-004 
1.988594e-004 
2.000487e-004 
2.011475e-004 
2.020710e-004 
2.027896e-004 
2.034272e-004 
2.039977e-004 
2.044067e-004 
2.047038e-004 
2.049829e-004 
2.051738e-004 
2.052273e-004 
2.052315e-004 
2.052056e-004 
2.050331e-004 
2.047099e-004 
2.042807e-004 
2.037852e-004 
1.000000e+000 
1.000000e+000 
1.150721e-004 
1.149077e-004 
1.148335e-004 
1.148762e-004 
1.150312e-004 
1.152521e-004 
1.155264e-004 
1.159225e-004 
1.163897e-004 
1.168654e-004 
1.173997e-004 
1.180344e-004 
1.186722e-004 
1.193042e-004 
1.200234e-004 
1.208041e-004 
1.215473e-004 
1.223286e-004 
1.232259e-004 
1.241405e-004 
1.250335e-004 
1.260447e-004 
1.271729e-004 
1.282884e-004 
1.294554e-004 
1.308095e-004 
1.322438e-004 
1.336731e-004 
1.352570e-004 
1.370432e-004 
1.388535e-004 
1.407167e-004 
1.428183e-004 
1.450654e-004 
1.472945e-004 
1.496654e-004 
1.522833e-004 
1.549288e-004 
1.575527e-004 
1.603839e-004 
1.633576e-004 
1.662213e-004 
1.690941e-004 
1.721497e-004 
1.751422e-004 
1.779227e-004 
1.807396e-004 
1.835866e-004 
1.861349e-004 
1.884440e-004 
1.907573e-004 
1.928469e-004 
1.944774e-004 
1.959065e-004 
1.972104e-004 
1.980376e-004 
1.983977e-004 
1.986001e-004 
1.984777e-004 
1.977622e-004 
1.967168e-004 
1.955020e-004 
1.938022e-004 
1.916129e-004 
1.892852e-004 
1.867285e-004 
1.837020e-004 
1.804721e-004 
1.772477e-004 
1.737837e-004 
1.700947e-004 
1.665265e-004 
1.630404e-004 
1.594577e-004 
1.560254e-004 
1.529336e-004 
1.500008e-004 
1.472578e-004 
1.449742e-004 
1.431090e-004 
1.415320e-004 
1.404171e-004 
1.398633e-004 
1.397158e-004 
1.399800e-004 
1.407897e-004 
1.420615e-004 
1.436789e-004 
1.457070e-004 
1.481398e-004 
1.508351e-004 
1.537581e-004 
1.569306e-004 
1.602535e-004 
1.636316e-004 
1.670673e-004 
1.705210e-004 
1.738969e-004 
1.771675e-004 
1.803318e-004 
1.833337e-004 
1.861330e-004 
1.887413e-004 
1.911484e-004 
1.933244e-004 
1.952792e-004 
1.970316e-004 
1.985747e-004 
1.999138e-004 
2.010767e-004 
2.020747e-004 
2.029140e-004 
2.036159e-004 
2.042007e-004 
2.046734e-004 
2.050494e-004 
2.053402e-004 
2.055546e-004 
2.056928e-004 
2.057643e-004 
2.057559e-004 
2.056662e-004 
2.054804e-004 
2.052244e-004 
2.048490e-004 
2.042882e-004 
1.000000e+000 
1.000000e+000 
1.143459e-004 
1.142516e-004 
1.142167e-004 
1.142601e-004 
1.144279e-004 
1.147136e-004 
1.150264e-004 
1.154056e-004 
1.158868e-004 
1.164152e-004 
1.169452e-004 
1.175472e-004 
1.182127e-004 
1.188721e-004 
1.195470e-004 
1.203041e-004 
1.210869e-004 
1.218615e-004 
1.227023e-004 
1.236299e-004 
1.245693e-004 
1.255514e-004 
1.266544e-004 
1.278384e-004 
1.290570e-004 
1.303929e-004 
1.318779e-004 
1.334385e-004 
1.350879e-004 
1.369138e-004 
1.388834e-004 
1.409371e-004 
1.431371e-004 
1.455277e-004 
1.480340e-004 
1.506382e-004 
1.534094e-004 
1.563308e-004 
1.593226e-004 
1.624009e-004 
1.656028e-004 
1.688681e-004 
1.721343e-004 
1.754222e-004 
1.787314e-004 
1.819873e-004 
1.851384e-004 
1.881981e-004 
1.911508e-004 
1.939145e-004 
1.964404e-004 
1.987556e-004 
2.008406e-004 
2.025929e-004 
2.039903e-004 
2.051002e-004 
2.058725e-004 
2.061921e-004 
2.061189e-004 
2.057399e-004 
2.049361e-004 
2.036474e-004 
2.020437e-004 
2.001494e-004 
1.977996e-004 
1.950856e-004 
1.922182e-004 
1.890864e-004 
1.855986e-004 
1.820178e-004 
1.784439e-004 
1.746754e-004 
1.708267e-004 
1.671975e-004 
1.636760e-004 
1.601423e-004 
1.569075e-004 
1.540916e-004 
1.514520e-004 
1.490973e-004 
1.473310e-004 
1.459973e-004 
1.449395e-004 
1.444391e-004 
1.445562e-004 
1.449990e-004 
1.458318e-004 
1.472766e-004 
1.491168e-004 
1.511642e-004 
1.536205e-004 
1.564703e-004 
1.594126e-004 
1.624710e-004 
1.657906e-004 
1.691567e-004 
1.723992e-004 
1.756714e-004 
1.789550e-004 
1.820137e-004 
1.848746e-004 
1.876732e-004 
1.902687e-004 
1.925484e-004 
1.946584e-004 
1.966302e-004 
1.983103e-004 
1.997389e-004 
2.010588e-004 
2.022040e-004 
2.030938e-004 
2.038587e-004 
2.045576e-004 
2.050870e-004 
2.054611e-004 
2.058124e-004 
2.061006e-004 
2.062485e-004 
2.063318e-004 
2.064181e-004 
2.064020e-004 
2.062764e-004 
2.061058e-004 
2.058555e-004 
2.054043e-004 
2.048732e-004 
1.000000e+000 
1.000000e+000 
1.135144e-004 
1.134073e-004 
1.134573e-004 
1.136019e-004 
1.137704e-004 
1.140489e-004 
1.144397e-004 
1.148572e-004 
1.152989e-004 
1.158559e-004 
1.164552e-004 
1.170256e-004 
1.176526e-004 
1.183778e-004 
1.190742e-004 
1.197564e-004 
1.205519e-004 
1.214062e-004 
1.222080e-004 
1.230825e-004 
1.241125e-004 
1.251548e-004 
1.261958e-004 
1.274231e-004 
1.287987e-004 
1.301651e-004 
1.316464e-004 
1.333903e-004 
1.352277e-004 
1.370904e-004 
1.392016e-004 
1.415667e-004 
1.439577e-004 
1.464656e-004 
1.492987e-004 
1.522811e-004 
1.552497e-004 
1.584366e-004 
1.619013e-004 
1.653488e-004 
1.687884e-004 
1.724793e-004 
1.762597e-004 
1.798620e-004 
1.834869e-004 
1.872632e-004 
1.908577e-004 
1.941845e-004 
1.975341e-004 
2.007990e-004 
2.036405e-004 
2.062157e-004 
2.087253e-004 
2.108574e-004 
2.124614e-004 
2.138439e-004 
2.149761e-004 
2.155179e-004 
2.155945e-004 
2.154611e-004 
2.148750e-004 
2.136818e-004 
2.121866e-004 
2.104319e-004 
2.081415e-004 
2.054367e-004 
2.025864e-004 
1.994348e-004 
1.958824e-004 
1.922118e-004 
1.884983e-004 
1.845675e-004 
1.805521e-004 
1.766789e-004 
1.728632e-004 
1.690806e-004 
1.655516e-004 
1.623279e-004 
1.593265e-004 
1.566626e-004 
1.544568e-004 
1.526509e-004 
1.512572e-004 
1.503757e-004 
1.499841e-004 
1.500390e-004 
1.505827e-004 
1.515968e-004 
1.530138e-004 
1.548292e-004 
1.570127e-004 
1.594771e-004 
1.621906e-004 
1.651253e-004 
1.681838e-004 
1.713097e-004 
1.744955e-004 
1.776647e-004 
1.807371e-004 
1.837188e-004 
1.865863e-004 
1.892586e-004 
1.917279e-004 
1.940273e-004 
1.961110e-004 
1.979459e-004 
1.995833e-004 
2.010403e-004 
2.022719e-004 
2.033075e-004 
2.042076e-004 
2.049563e-004 
2.055362e-004 
2.060145e-004 
2.064141e-004 
2.067017e-004 
2.068955e-004 
2.070557e-004 
2.071521e-004 
2.071645e-004 
2.071212e-004 
2.070366e-004 
2.068486e-004 
2.065834e-004 
2.062504e-004 
2.057539e-004 
1.000000e+000 
1.000000e+000 
1.125932e-004 
1.125698e-004 
1.126114e-004 
1.127980e-004 
1.130521e-004 
1.133484e-004 
1.137356e-004 
1.142166e-004 
1.147043e-004 
1.152280e-004 
1.158360e-004 
1.164784e-004 
1.171004e-004 
1.177761e-004 
1.185208e-004 
1.192622e-004 
1.200091e-004 
1.208489e-004 
1.217484e-004 
1.226544e-004 
1.236360e-004 
1.247514e-004 
1.259310e-004 
1.271723e-004 
1.285713e-004 
1.301300e-004 
1.317756e-004 
1.335610e-004 
1.355661e-004 
1.377382e-004 
1.400312e-004 
1.425332e-004 
1.452763e-004 
1.481706e-004 
1.512097e-004 
1.544873e-004 
1.579707e-004 
1.615534e-004 
1.652716e-004 
1.691959e-004 
1.732227e-004 
1.772545e-004 
1.813717e-004 
1.855921e-004 
1.897473e-004 
1.937898e-004 
1.978360e-004 
2.018151e-004 
2.055293e-004 
2.090317e-004 
2.124327e-004 
2.155466e-004 
2.182290e-004 
2.206543e-004 
2.228417e-004 
2.245232e-004 
2.257148e-004 
2.266496e-004 
2.271779e-004 
2.270731e-004 
2.265634e-004 
2.257929e-004 
2.244643e-004 
2.225612e-004 
2.204351e-004 
2.180030e-004 
2.149883e-004 
2.116643e-004 
2.082873e-004 
2.045623e-004 
2.004599e-004 
1.964140e-004 
1.923940e-004 
1.881087e-004 
1.838588e-004 
1.799490e-004 
1.760896e-004 
1.722520e-004 
1.688777e-004 
1.659295e-004 
1.631162e-004 
1.607179e-004 
1.589867e-004 
1.576147e-004 
1.565592e-004 
1.561706e-004 
1.563440e-004 
1.567856e-004 
1.576962e-004 
1.592067e-004 
1.609961e-004 
1.629944e-004 
1.654242e-004 
1.681329e-004 
1.708556e-004 
1.737179e-004 
1.767781e-004 
1.797678e-004 
1.826264e-004 
1.855140e-004 
1.883189e-004 
1.908544e-004 
1.932277e-004 
1.955105e-004 
1.975343e-004 
1.992752e-004 
2.008849e-004 
2.023278e-004 
2.034883e-004 
2.044665e-004 
2.053574e-004 
2.060685e-004 
2.065808e-004 
2.070290e-004 
2.074160e-004 
2.076557e-004 
2.078050e-004 
2.079583e-004 
2.080425e-004 
2.080171e-004 
2.079654e-004 
2.079092e-004 
2.077368e-004 
2.074412e-004 
2.070816e-004 
2.066752e-004 
1.000000e+000 
1.000000e+000 
1.115038e-004 
1.115874e-004 
1.117155e-004 
1.119102e-004 
1.122254e-004 
1.126054e-004 
1.129846e-004 
1.134627e-004 
1.140327e-004 
1.145862e-004 
1.151497e-004 
1.158283e-004 
1.165248e-004 
1.171724e-004 
1.178947e-004 
1.187224e-004 
1.195095e-004 
1.203060e-004 
1.212607e-004 
1.222863e-004 
1.232801e-004 
1.244134e-004 
1.257539e-004 
1.271289e-004 
1.285668e-004 
1.302794e-004 
1.321836e-004 
1.341237e-004 
1.362780e-004 
1.387728e-004 
1.413932e-004 
1.441119e-004 
1.471782e-004 
1.505354e-004 
1.539437e-004 
1.575486e-004 
1.615276e-004 
1.656396e-004 
1.697571e-004 
1.741360e-004 
1.787582e-004 
1.833088e-004 
1.878561e-004 
1.926211e-004 
1.973688e-004 
2.018787e-004 
2.063805e-004 
2.109158e-004 
2.151445e-004 
2.190611e-004 
2.229114e-004 
2.265155e-004 
2.296146e-004 
2.324029e-004 
2.349791e-004 
2.370476e-004 
2.385687e-004 
2.397872e-004 
2.405989e-004 
2.407827e-004 
2.405031e-004 
2.398864e-004 
2.387305e-004 
2.370183e-004 
2.349641e-004 
2.325300e-004 
2.295954e-004 
2.263093e-004 
2.227832e-004 
2.189293e-004 
2.147953e-004 
2.105372e-004 
2.061573e-004 
2.016622e-004 
1.971808e-004 
1.927688e-004 
1.884412e-004 
1.843027e-004 
1.804132e-004 
1.767798e-004 
1.735027e-004 
1.706447e-004 
1.681678e-004 
1.661389e-004 
1.646510e-004 
1.636280e-004 
1.630449e-004 
1.630128e-004 
1.634801e-004 
1.643096e-004 
1.655646e-004 
1.672696e-004 
1.692401e-004 
1.714229e-004 
1.739024e-004 
1.765542e-004 
1.792139e-004 
1.819445e-004 
1.847477e-004 
1.874378e-004 
1.899847e-004 
1.924844e-004 
1.948417e-004 
1.969386e-004 
1.988660e-004 
2.006656e-004 
2.022131e-004 
2.035147e-004 
2.046933e-004 
2.057116e-004 
2.064913e-004 
2.071334e-004 
2.077077e-004 
2.081307e-004 
2.084052e-004 
2.086521e-004 
2.088517e-004 
2.089299e-004 
2.089557e-004 
2.089972e-004 
2.089611e-004 
2.088206e-004 
2.086647e-004 
2.084900e-004 
2.081818e-004 
2.077298e-004 
1.000000e+000 
1.000000e+000 
1.103774e-004 
1.105226e-004 
1.107417e-004 
1.109965e-004 
1.113101e-004 
1.117437e-004 
1.122144e-004 
1.126894e-004 
1.132371e-004 
1.138721e-004 