# vtk DataFile Version 2.0
2D-ADE data file 
ASCII
DATASET RECTILINEAR_GRID
DIMENSIONS 128 128 1
X_COORDINATES 128 int
0 1 2 3 4 5 6 7 8 9 10 11 12 13 14 15 16 17 18 19 20 21 22 23 24 25 26 27 28 29 30 31 32 33 34 35 36 37 38 39 40 41 42 43 44 45 46 47 48 49 50 51 52 53 54 55 56 57 58 59 60 61 62 63 64 65 66 67 68 69 70 71 72 73 74 75 76 77 78 79 80 81 82 83 84 85 86 87 88 89 90 91 92 93 94 95 96 97 98 99 100 101 102 103 104 105 106 107 108 109 110 111 112 113 114 115 116 117 118 119 120 121 122 123 124 125 126 127 
Y_COORDINATES 128 int
0 1 2 3 4 5 6 7 8 9 10 11 12 13 14 15 16 17 18 19 20 21 22 23 24 25 26 27 28 29 30 31 32 33 34 35 36 37 38 39 40 41 42 43 44 45 46 47 48 49 50 51 52 53 54 55 56 57 58 59 60 61 62 63 64 65 66 67 68 69 70 71 72 73 74 75 76 77 78 79 80 81 82 83 84 85 86 87 88 89 90 91 92 93 94 95 96 97 98 99 100 101 102 103 104 105 106 107 108 109 110 111 112 113 114 115 116 117 118 119 120 121 122 123 124 125 126 127 
Z_COORDINATES 1 int
0
POINT_DATA 16384 
SCALARS density double 1
LOOKUP_TABLE default
1.000000e+000 
1.000000e+000 
1.000000e+000 
1.000000e+000 
1.000000e+000 
1.000000e+000 
1.000000e+000 
1.000000e+000 
1.000000e+000 
1.000000e+000 
1.000000e+000 
1.000000e+000 
1.000000e+000 
1.000000e+000 
1.000000e+000 
1.000000e+000 
1.000000e+000 
1.000000e+000 
1.000000e+000 
1.000000e+000 
1.000000e+000 
1.000000e+000 
1.000000e+000 
1.000000e+000 
1.000000e+000 
1.000000e+000 
1.000000e+000 
1.000000e+000 
1.000000e+000 
1.000000e+000 
1.000000e+000 
1.000000e+000 
1.000000e+000 
1.000000e+000 
1.000000e+000 
1.000000e+000 
1.000000e+000 
1.000000e+000 
1.000000e+000 
1.000000e+000 
1.000000e+000 
1.000000e+000 
1.000000e+000 
1.000000e+000 
1.000000e+000 
1.000000e+000 
1.000000e+000 
1.000000e+000 
1.000000e+000 
1.000000e+000 
1.000000e+000 
1.000000e+000 
1.000000e+000 
1.000000e+000 
1.000000e+000 
1.000000e+000 
1.000000e+000 
1.000000e+000 
1.000000e+000 
1.000000e+000 
1.000000e+000 
1.000000e+000 
1.000000e+000 
1.000000e+000 
1.000000e+000 
1.000000e+000 
1.000000e+000 
1.000000e+000 
1.000000e+000 
1.000000e+000 
1.000000e+000 
1.000000e+000 
1.000000e+000 
1.000000e+000 
1.000000e+000 
1.000000e+000 
1.000000e+000 
1.000000e+000 
1.000000e+000 
1.000000e+000 
1.000000e+000 
1.000000e+000 
1.000000e+000 
1.000000e+000 
1.000000e+000 
1.000000e+000 
1.000000e+000 
1.000000e+000 
1.000000e+000 
1.000000e+000 
1.000000e+000 
1.000000e+000 
1.000000e+000 
1.000000e+000 
1.000000e+000 
1.000000e+000 
1.000000e+000 
1.000000e+000 
1.000000e+000 
1.000000e+000 
1.000000e+000 
1.000000e+000 
1.000000e+000 
1.000000e+000 
1.000000e+000 
1.000000e+000 
1.000000e+000 
1.000000e+000 
1.000000e+000 
1.000000e+000 
1.000000e+000 
1.000000e+000 
1.000000e+000 
1.000000e+000 
1.000000e+000 
1.000000e+000 
1.000000e+000 
1.000000e+000 
1.000000e+000 
1.000000e+000 
1.000000e+000 
1.000000e+000 
1.000000e+000 
1.000000e+000 
1.000000e+000 
1.000000e+000 
1.000000e+000 
1.000000e+000 
1.000000e+000 
1.186250e-004 
1.185330e-004 
1.184057e-004 
1.183352e-004 
1.182971e-004 
1.184489e-004 
1.186856e-004 
1.190352e-004 
1.194457e-004 
1.200175e-004 
1.206429e-004 
1.213270e-004 
1.220873e-004 
1.229533e-004 
1.238302e-004 
1.247469e-004 
1.257574e-004 
1.268197e-004 
1.278784e-004 
1.290025e-004 
1.302284e-004 
1.314634e-004 
1.327200e-004 
1.340842e-004 
1.355315e-004 
1.369655e-004 
1.384747e-004 
1.401110e-004 
1.417832e-004 
1.434491e-004 
1.452437e-004 
1.471340e-004 
1.490039e-004 
1.509028e-004 
1.529460e-004 
1.550005e-004 
1.569969e-004 
1.590639e-004 
1.612207e-004 
1.632769e-004 
1.652723e-004 
1.673440e-004 
1.693744e-004 
1.712084e-004 
1.730021e-004 
1.747997e-004 
1.763835e-004 
1.777312e-004 
1.790411e-004 
1.801972e-004 
1.809968e-004 
1.815834e-004 
1.820724e-004 
1.822168e-004 
1.819637e-004 
1.815478e-004 
1.809065e-004 
1.797976e-004 
1.783757e-004 
1.768148e-004 
1.748974e-004 
1.725495e-004 
1.700509e-004 
1.673951e-004 
1.643597e-004 
1.611025e-004 
1.578521e-004 
1.544393e-004 
1.508067e-004 
1.472433e-004 
1.437927e-004 
1.402730e-004 
1.368380e-004 
1.337162e-004 
1.307849e-004 
1.279987e-004 
1.256027e-004 
1.236419e-004 
1.219627e-004 
1.206737e-004 
1.199364e-004 
1.196411e-004 
1.197191e-004 
1.203225e-004 
1.214460e-004 
1.229444e-004 
1.248399e-004 
1.272110e-004 
1.299301e-004 
1.329096e-004 
1.361951e-004 
1.397600e-004 
1.434522e-004 
1.472626e-004 
1.511986e-004 
1.551772e-004 
1.590923e-004 
1.629858e-004 
1.668113e-004 
1.704990e-004 
1.740040e-004 
1.773847e-004 
1.805584e-004 
1.835152e-004 
1.862431e-004 
1.888004e-004 
1.910914e-004 
1.931771e-004 
1.950358e-004 
1.967298e-004 
1.981611e-004 
1.994479e-004 
2.005238e-004 
2.014736e-004 
2.021868e-004 
2.028211e-004 
2.032499e-004 
2.035967e-004 
2.037213e-004 
2.038147e-004 
2.037058e-004 
2.035580e-004 
2.032232e-004 
2.029278e-004 
2.026589e-004 
2.025354e-004 
1.000000e+000 
1.000000e+000 
1.187062e-004 
1.186113e-004 
1.185068e-004 
1.185335e-004 
1.185097e-004 
1.186734e-004 
1.188781e-004 
1.192572e-004 
1.196303e-004 
1.201686e-004 
1.207593e-004 
1.214365e-004 
1.221382e-004 
1.229611e-004 
1.238166e-004 
1.247040e-004 
1.256542e-004 
1.266840e-004 
1.277286e-004 
1.288053e-004 
1.299786e-004 
1.311926e-004 
1.324277e-004 
1.337288e-004 
1.351337e-004 
1.365490e-004 
1.380172e-004 
1.395797e-004 
1.412199e-004 
1.428593e-004 
1.445891e-004 
1.464051e-004 
1.482543e-004 
1.501114e-004 
1.520705e-004 
1.540661e-004 
1.560536e-004 
1.580580e-004 
1.601273e-004 
1.621596e-004 
1.641525e-004 
1.661409e-004 
1.681102e-004 
1.699694e-004 
1.717520e-004 
1.734619e-004 
1.750500e-004 
1.764649e-004 
1.777400e-004 
1.788454e-004 
1.797411e-004 
1.804026e-004 
1.808408e-004 
1.810281e-004 
1.809474e-004 
1.805718e-004 
1.799117e-004 
1.789732e-004 
1.777356e-004 
1.761717e-004 
1.743383e-004 
1.722567e-004 
1.698780e-004 
1.672271e-004 
1.644146e-004 
1.614197e-004 
1.581997e-004 
1.548807e-004 
1.515570e-004 
1.481452e-004 
1.446917e-004 
1.413865e-004 
1.382167e-004 
1.351055e-004 
1.322248e-004 
1.297023e-004 
1.274113e-004 
1.253865e-004 
1.238376e-004 
1.227258e-004 
1.219178e-004 
1.215766e-004 
1.217933e-004 
1.223942e-004 
1.233551e-004 
1.248570e-004 
1.267932e-004 
1.289994e-004 
1.315648e-004 
1.345533e-004 
1.377328e-004 
1.410702e-004 
1.446633e-004 
1.484281e-004 
1.521533e-004 
1.559439e-004 
1.597988e-004 
1.635755e-004 
1.671761e-004 
1.707640e-004 
1.742103e-004 
1.774391e-004 
1.804509e-004 
1.833864e-004 
1.860351e-004 
1.884637e-004 
1.906815e-004 
1.927865e-004 
1.945491e-004 
1.961815e-004 
1.976054e-004 
1.989189e-004 
1.999013e-004 
2.008687e-004 
2.015995e-004 
2.022597e-004 
2.026201e-004 
2.030567e-004 
2.032029e-004 
2.033427e-004 
2.032202e-004 
2.032245e-004 
2.029394e-004 
2.027354e-004 
2.025398e-004 
2.024480e-004 
1.000000e+000 
1.000000e+000 
1.188225e-004 
1.187297e-004 
1.186160e-004 
1.185813e-004 
1.186595e-004 
1.188110e-004 
1.190072e-004 
1.193422e-004 
1.197711e-004 
1.202478e-004 
1.207912e-004 
1.214626e-004 
1.221717e-004 
1.229012e-004 
1.237220e-004 
1.246307e-004 
1.255295e-004 
1.264670e-004 
1.275177e-004 
1.286032e-004 
1.296722e-004 
1.308334e-004 
1.321023e-004 
1.333585e-004 
1.346404e-004 
1.360631e-004 
1.375480e-004 
1.390015e-004 
1.405518e-004 
1.422435e-004 
1.439273e-004 
1.456053e-004 
1.474366e-004 
1.493435e-004 
1.511836e-004 
1.530765e-004 
1.551167e-004 
1.571174e-004 
1.590357e-004 
1.610553e-004 
1.631272e-004 
1.650419e-004 
1.669030e-004 
1.688473e-004 
1.706780e-004 
1.722828e-004 
1.738689e-004 
1.754211e-004 
1.766872e-004 
1.777303e-004 
1.787390e-004 
1.795240e-004 
1.799251e-004 
1.801526e-004 
1.802480e-004 
1.799460e-004 
1.792844e-004 
1.784887e-004 
1.774178e-004 
1.758974e-004 
1.741420e-004 
1.722470e-004 
1.699888e-004 
1.673996e-004 
1.647285e-004 
1.618973e-004 
1.587682e-004 
1.555490e-004 
1.523704e-004 
1.490773e-004 
1.457149e-004 
1.425145e-004 
1.394487e-004 
1.364306e-004 
1.336333e-004 
1.311719e-004 
1.289485e-004 
1.270000e-004 
1.254842e-004 
1.243813e-004 
1.236265e-004 
1.233136e-004 
1.234911e-004 
1.240797e-004 
1.250697e-004 
1.265157e-004 
1.283696e-004 
1.305626e-004 
1.330952e-004 
1.359528e-004 
1.390557e-004 
1.423599e-004 
1.458424e-004 
1.494548e-004 
1.531290e-004 
1.568363e-004 
1.605371e-004 
1.641918e-004 
1.677536e-004 
1.712063e-004 
1.745162e-004 
1.776699e-004 
1.806358e-004 
1.834169e-004 
1.859941e-004 
1.883770e-004 
1.905412e-004 
1.925138e-004 
1.942816e-004 
1.958679e-004 
1.972505e-004 
1.984773e-004 
1.995249e-004 
2.004253e-004 
2.011557e-004 
2.017753e-004 
2.022382e-004 
2.025882e-004 
2.028034e-004 
2.029385e-004 
2.029377e-004 
2.028648e-004 
2.027339e-004 
2.025465e-004 
2.023298e-004 
2.021589e-004 
1.000000e+000 
1.000000e+000 
1.188952e-004 
1.187058e-004 
1.186429e-004 
1.186102e-004 
1.186794e-004 
1.188227e-004 
1.190627e-004 
1.193588e-004 
1.197758e-004 
1.202563e-004 
1.207963e-004 
1.214046e-004 
1.221012e-004 
1.228318e-004 
1.236058e-004 
1.244524e-004 
1.253506e-004 
1.262712e-004 
1.272447e-004 
1.282902e-004 
1.293652e-004 
1.304775e-004 
1.316609e-004 
1.329092e-004 
1.341843e-004 
1.355237e-004 
1.369423e-004 
1.384142e-004 
1.399235e-004 
1.415151e-004 
1.431758e-004 
1.448779e-004 
1.466258e-004 
1.484516e-004 
1.503218e-004 
1.522165e-004 
1.541478e-004 
1.561290e-004 
1.581166e-004 
1.600952e-004 
1.620774e-004 
1.640615e-004 
1.659935e-004 
1.678594e-004 
1.696784e-004 
1.714303e-004 
1.730444e-004 
1.745238e-004 
1.758976e-004 
1.771088e-004 
1.780837e-004 
1.788708e-004 
1.794864e-004 
1.798251e-004 
1.798596e-004 
1.796886e-004 
1.792690e-004 
1.784821e-004 
1.774031e-004 
1.761298e-004 
1.745359e-004 
1.725780e-004 
1.704338e-004 
1.681123e-004 
1.654597e-004 
1.625899e-004 
1.596871e-004 
1.566311e-004 
1.533662e-004 
1.501427e-004 
1.470161e-004 
1.438132e-004 
1.406687e-004 
1.378206e-004 
1.351448e-004 
1.325693e-004 
1.303638e-004 
1.285851e-004 
1.270334e-004 
1.258226e-004 
1.251715e-004 
1.249230e-004 
1.249714e-004 
1.255346e-004 
1.266241e-004 
1.280046e-004 
1.297382e-004 
1.319698e-004 
1.345165e-004 
1.372356e-004 
1.402794e-004 
1.436131e-004 
1.470112e-004 
1.504860e-004 
1.541468e-004 
1.578183e-004 
1.613814e-004 
1.649396e-004 
1.684890e-004 
1.718374e-004 
1.750171e-004 
1.781144e-004 
1.810407e-004 
1.836867e-004 
1.861822e-004 
1.885273e-004 
1.906291e-004 
1.924817e-004 
1.942259e-004 
1.957732e-004 
1.970969e-004 
1.982458e-004 
1.993168e-004 
2.001713e-004 
2.008758e-004 
2.014637e-004 
2.019835e-004 
2.022885e-004 
2.025284e-004 
2.026726e-004 
2.027516e-004 
2.026338e-004 
2.025361e-004 
2.023789e-004 
2.021685e-004 
2.018395e-004 
1.000000e+000 
1.000000e+000 
1.189359e-004 
1.187104e-004 
1.185739e-004 
1.185643e-004 
1.186166e-004 
1.187588e-004 
1.190263e-004 
1.193336e-004 
1.196998e-004 
1.201810e-004 
1.207444e-004 
1.213118e-004 
1.219535e-004 
1.227012e-004 
1.234634e-004 
1.242301e-004 
1.251012e-004 
1.260401e-004 
1.269516e-004 
1.279165e-004 
1.290026e-004 
1.301026e-004 
1.311866e-004 
1.323929e-004 
1.336962e-004 
1.349714e-004 
1.362934e-004 
1.377773e-004 
1.392935e-004 
1.407810e-004 
1.423946e-004 
1.441442e-004 
1.458523e-004 
1.475807e-004 
1.494775e-004 
1.514170e-004 
1.532743e-004 
1.552204e-004 
1.572943e-004 
1.592870e-004 
1.612089e-004 
1.632486e-004 
1.652855e-004 
1.671414e-004 
1.689664e-004 
1.708467e-004 
1.725476e-004 
1.740302e-004 
1.754953e-004 
1.768575e-004 
1.778962e-004 
1.787364e-004 
1.794983e-004 
1.799676e-004 
1.800660e-004 
1.799989e-004 
1.797270e-004 
1.790425e-004 
1.780463e-004 
1.768884e-004 
1.754103e-004 
1.735445e-004 
1.714853e-004 
1.692481e-004 
1.666878e-004 
1.639025e-004 
1.610458e-004 
1.580402e-004 
1.548637e-004 
1.516839e-004 
1.485481e-004 
1.453971e-004 
1.423225e-004 
1.394424e-004 
1.367418e-004 
1.342391e-004 
1.320372e-004 
1.301705e-004 
1.286362e-004 
1.274830e-004 
1.267475e-004 
1.264293e-004 
1.265431e-004 
1.270896e-004 
1.280546e-004 
1.294399e-004 
1.312248e-004 
1.333538e-004 
1.358148e-004 
1.385910e-004 
1.416058e-004 
1.448038e-004 
1.481886e-004 
1.516964e-004 
1.552408e-004 
1.588096e-004 
1.623961e-004 
1.659065e-004 
1.693041e-004 
1.726088e-004 
1.757872e-004 
1.787627e-004 
1.815649e-004 
1.842070e-004 
1.866435e-004 
1.888473e-004 
1.908864e-004 
1.927395e-004 
1.943798e-004 
1.958259e-004 
1.971432e-004 
1.982750e-004 
1.992377e-004 
2.000644e-004 
2.007919e-004 
2.013469e-004 
2.017959e-004 
2.021484e-004 
2.024117e-004 
2.025202e-004 
2.025806e-004 
2.025643e-004 
2.024589e-004 
2.022290e-004 
2.018994e-004 
2.015506e-004 
1.000000e+000 
1.000000e+000 
1.187783e-004 
1.185419e-004 
1.184207e-004 
1.184259e-004 
1.184931e-004 
1.186375e-004 
1.188658e-004 
1.192056e-004 
1.195972e-004 
1.200427e-004 
1.205722e-004 
1.211756e-004 
1.218018e-004 
1.224794e-004 
1.232326e-004 
1.240223e-004 
1.248264e-004 
1.256951e-004 
1.266283e-004 
1.275781e-004 
1.285615e-004 
1.296286e-004 
1.307479e-004 
1.318847e-004 
1.330896e-004 
1.343883e-004 
1.357246e-004 
1.370959e-004 
1.385670e-004 
1.401224e-004 
1.417005e-004 
1.433387e-004 
1.450898e-004 
1.468924e-004 
1.487046e-004 
1.505987e-004 
1.525857e-004 
1.545686e-004 
1.565515e-004 
1.586183e-004 
1.607119e-004 
1.627306e-004 
1.647418e-004 
1.667971e-004 
1.687646e-004 
1.705911e-004 
1.723954e-004 
1.741427e-004 
1.756644e-004 
1.770081e-004 
1.782873e-004 
1.793530e-004 
1.800867e-004 
1.806453e-004 
1.810498e-004 
1.810796e-004 
1.807630e-004 
1.802944e-004 
1.795441e-004 
1.783439e-004 
1.768959e-004 
1.753016e-004 
1.733253e-004 
1.709881e-004 
1.685680e-004 
1.659805e-004 
1.630395e-004 
1.599871e-004 
1.569976e-004 
1.538464e-004 
1.505582e-004 
1.474598e-004 
1.445010e-004 
1.414961e-004 
1.386951e-004 
1.362900e-004 
1.340634e-004 
1.320294e-004 
1.304911e-004 
1.293871e-004 
1.285241e-004 
1.281035e-004 
1.282618e-004 
1.287698e-004 
1.296024e-004 
1.309736e-004 
1.327807e-004 
1.348189e-004 
1.372075e-004 
1.400084e-004 
1.429927e-004 
1.461029e-004 
1.494688e-004 
1.529813e-004 
1.564549e-004 
1.599621e-004 
1.635384e-004 
1.670077e-004 
1.703184e-004 
1.735782e-004 
1.767195e-004 
1.796172e-004 
1.823346e-004 
1.849325e-004 
1.872999e-004 
1.894168e-004 
1.913830e-004 
1.931885e-004 
1.947471e-004 
1.961243e-004 
1.973853e-004 
1.984768e-004 
1.993699e-004 
2.001613e-004 
2.008530e-004 
2.013917e-004 
2.017972e-004 
2.021506e-004 
2.023999e-004 
2.025258e-004 
2.025636e-004 
2.025542e-004 
2.024020e-004 
2.021872e-004 
2.019033e-004 
2.014539e-004 
1.000000e+000 
1.000000e+000 
1.185407e-004 
1.183632e-004 
1.182132e-004 
1.181666e-004 
1.182595e-004 
1.184528e-004 
1.186666e-004 
1.189882e-004 
1.194107e-004 
1.198644e-004 
1.203524e-004 
1.209531e-004 
1.215988e-004 
1.222370e-004 
1.229431e-004 
1.237429e-004 
1.245317e-004 
1.253306e-004 
1.262379e-004 
1.271956e-004 
1.281238e-004 
1.291259e-004 
1.302492e-004 
1.313725e-004 
1.325027e-004 
1.337739e-004 
1.351320e-004 
1.364640e-004 
1.378792e-004 
1.394576e-004 
1.410569e-004 
1.426516e-004 
1.444021e-004 
1.462690e-004 
1.480984e-004 
1.499840e-004 
1.520397e-004 
1.541109e-004 
1.561257e-004 
1.582495e-004 
1.604684e-004 
1.625912e-004 
1.646746e-004 
1.668524e-004 
1.689770e-004 
1.709270e-004 
1.728498e-004 
1.747577e-004 
1.764498e-004 
1.779372e-004 
1.793569e-004 
1.805905e-004 
1.815004e-004 
1.822013e-004 
1.827315e-004 
1.829260e-004 
1.827767e-004 
1.824071e-004 
1.817536e-004 
1.807168e-004 
1.793868e-004 
1.778191e-004 
1.759318e-004 
1.737374e-004 
1.713345e-004 
1.687219e-004 
1.658852e-004 
1.628975e-004 
1.598126e-004 
1.566472e-004 
1.534540e-004 
1.502850e-004 
1.471825e-004 
1.442166e-004 
1.414271e-004 
1.388318e-004 
1.365153e-004 
1.345402e-004 
1.328784e-004 
1.315719e-004 
1.307216e-004 
1.302950e-004 
1.302406e-004 
1.306515e-004 
1.315469e-004 
1.328042e-004 
1.344294e-004 
1.365001e-004 
1.389043e-004 
1.415324e-004 
1.444536e-004 
1.476438e-004 
1.509307e-004 
1.543021e-004 
1.578162e-004 
1.613473e-004 
1.647810e-004 
1.681905e-004 
1.715586e-004 
1.747430e-004 
1.777445e-004 
1.806461e-004 
1.833602e-004 
1.858149e-004 
1.880936e-004 
1.902268e-004 
1.921106e-004 
1.937728e-004 
1.953029e-004 
1.966689e-004 
1.978058e-004 
1.988095e-004 
1.997149e-004 
2.004607e-004 
2.010426e-004 
2.015691e-004 
2.020001e-004 
2.022930e-004 
2.024866e-004 
2.026525e-004 
2.026948e-004 
2.026395e-004 
2.025041e-004 
2.022738e-004 
2.018473e-004 
2.013657e-004 
1.000000e+000 
1.000000e+000 
1.181721e-004 
1.179489e-004 
1.178781e-004 
1.178867e-004 
1.179522e-004 
1.181371e-004 
1.184096e-004 
1.187286e-004 
1.191142e-004 
1.196022e-004 
1.201236e-004 
1.206657e-004 
1.212855e-004 
1.219730e-004 
1.226532e-004 
1.233662e-004 
1.241676e-004 
1.249977e-004 
1.258156e-004 
1.267089e-004 
1.276902e-004 
1.286718e-004 
1.296779e-004 
1.308059e-004 
1.320006e-004 
1.331906e-004 
1.344686e-004 
1.358886e-004 
1.373375e-004 
1.388084e-004 
1.404294e-004 
1.421674e-004 
1.438981e-004 
1.457044e-004 
1.476862e-004 
1.497145e-004 
1.517197e-004 
1.538555e-004 
1.561235e-004 
1.583393e-004 
1.605437e-004 
1.628912e-004 
1.652464e-004 
1.674561e-004 
1.696786e-004 
1.719715e-004 
1.740923e-004 
1.760169e-004 
1.779542e-004 
1.797915e-004 
1.812900e-004 
1.826004e-004 
1.838567e-004 
1.847920e-004 
1.853165e-004 
1.856956e-004 
1.858754e-004 
1.855661e-004 
1.849119e-004 
1.841353e-004 
1.829904e-004 
1.813523e-004 
1.795374e-004 
1.775690e-004 
1.751565e-004 
1.724485e-004 
1.697378e-004 
1.668278e-004 
1.635969e-004 
1.603875e-004 
1.572780e-004 
1.540111e-004 
1.507389e-004 
1.477668e-004 
1.449373e-004 
1.421466e-004 
1.397090e-004 
1.376970e-004 
1.358840e-004 
1.343937e-004 
1.334632e-004 
1.329364e-004 
1.327084e-004 
1.329990e-004 
1.338181e-004 
1.349508e-004 
1.364541e-004 
1.384530e-004 
1.407788e-004 
1.433139e-004 
1.461710e-004 
1.493077e-004 
1.525330e-004 
1.558546e-004 
1.593266e-004 
1.628087e-004 
1.662026e-004 
1.695746e-004 
1.728926e-004 
1.760292e-004 
1.789935e-004 
1.818389e-004 
1.844889e-004 
1.868933e-004 
1.891175e-004 
1.911716e-004 
1.929894e-004 
1.945963e-004 
1.960540e-004 
1.973386e-004 
1.984238e-004 
1.993704e-004 
2.002040e-004 
2.008930e-004 
2.014471e-004 
2.019226e-004 
2.023067e-004 
2.025794e-004 
2.027654e-004 
2.028996e-004 
2.029300e-004 
2.028523e-004 
2.026931e-004 
2.024714e-004 
2.021116e-004 
2.015613e-004 
1.000000e+000 
1.000000e+000 
1.177401e-004 
1.175415e-004 
1.174402e-004 
1.174811e-004 
1.175786e-004 
1.177556e-004 
1.180509e-004 
1.184095e-004 
1.187868e-004 
1.192550e-004 
1.198047e-004 
1.203584e-004 
1.209386e-004 
1.216127e-004 
1.223128e-004 
1.229981e-004 
1.237498e-004 
1.245813e-004 
1.253991e-004 
1.262395e-004 
1.271888e-004 
1.281858e-004 
1.291721e-004 
1.302523e-004 
1.314525e-004 
1.326684e-004 
1.339245e-004 
1.353347e-004 
1.368350e-004 
1.383463e-004 
1.399723e-004 
1.417625e-004 
1.435937e-004 
1.454685e-004 
1.475092e-004 
1.496638e-004 
1.518205e-004 
1.540652e-004 
1.564596e-004 
1.588765e-004 
1.612769e-004 
1.637715e-004 
1.663205e-004 
1.687933e-004 
1.712307e-004 
1.736935e-004 
1.760677e-004 
1.782837e-004 
1.804117e-004 
1.824311e-004 
1.842266e-004 
1.857978e-004 
1.871851e-004 
1.883224e-004 
1.891489e-004 
1.896899e-004 
1.899447e-004 
1.898688e-004 
1.894492e-004 
1.886970e-004 
1.876199e-004 
1.862210e-004 
1.844874e-004 
1.824371e-004 
1.801340e-004 
1.775848e-004 
1.747635e-004 
1.717579e-004 
1.686604e-004 
1.654248e-004 
1.620744e-004 
1.587791e-004 
1.555635e-004 
1.523528e-004 
1.492894e-004 
1.465254e-004 
1.439632e-004 
1.416057e-004 
1.396734e-004 
1.381641e-004 
1.369353e-004 
1.361299e-004 
1.358862e-004 
1.360291e-004 
1.365154e-004 
1.375390e-004 
1.390301e-004 
1.407822e-004 
1.428975e-004 
1.454546e-004 
1.482251e-004 
1.511302e-004 
1.543150e-004 
1.576735e-004 
1.609928e-004 
1.643488e-004 
1.677981e-004 
1.711358e-004 
1.742968e-004 
1.774148e-004 
1.804201e-004 
1.831516e-004 
1.856926e-004 
1.881242e-004 
1.903119e-004 
1.922204e-004 
1.939904e-004 
1.956063e-004 
1.969577e-004 
1.981233e-004 
1.992043e-004 
2.001152e-004 
2.008248e-004 
2.014563e-004 
2.020235e-004 
2.024312e-004 
2.027278e-004 
2.030076e-004 
2.032004e-004 
2.032559e-004 
2.032629e-004 
2.032409e-004 
2.030736e-004 
2.027576e-004 
2.023397e-004 
2.018570e-004 
1.000000e+000 
1.000000e+000 
1.171198e-004 
1.169791e-004 
1.169190e-004 
1.169675e-004 
1.171231e-004 
1.173380e-004 
1.175992e-004 
1.179766e-004 
1.184221e-004 
1.188721e-004 
1.193772e-004 
1.199817e-004 
1.205891e-004 
1.211887e-004 
1.218749e-004 
1.226236e-004 
1.233340e-004 
1.240802e-004 
1.249419e-004 
1.258199e-004 
1.266723e-004 
1.276388e-004 
1.287196e-004 
1.297826e-004 
1.308899e-004 
1.321784e-004 
1.335413e-004 
1.348904e-004 
1.363851e-004 
1.380749e-004 
1.397799e-004 
1.415270e-004 
1.435036e-004 
1.456170e-004 
1.477024e-004 
1.499193e-004 
1.523754e-004 
1.548512e-004 
1.572969e-004 
1.599432e-004 
1.627275e-004 
1.653972e-004 
1.680727e-004 
1.709304e-004 
1.737258e-004 
1.763111e-004 
1.789372e-004 
1.815999e-004 
1.839719e-004 
1.861143e-004 
1.882730e-004 
1.902214e-004 
1.917256e-004 
1.930450e-004 
1.942570e-004 
1.950111e-004 
1.953179e-004 
1.954876e-004 
1.953531e-004 
1.946465e-004 
1.936313e-004 
1.924672e-004 
1.908381e-004 
1.887389e-004 
1.865195e-004 
1.840878e-004 
1.812017e-004 
1.781255e-004 
1.750664e-004 
1.717767e-004 
1.682688e-004 
1.648857e-004 
1.615865e-004 
1.581893e-004 
1.549380e-004 
1.520210e-004 
1.492534e-004 
1.466629e-004 
1.445176e-004 
1.427745e-004 
1.413007e-004 
1.402684e-004 
1.397771e-004 
1.396703e-004 
1.399523e-004 
1.407587e-004 
1.420069e-004 
1.435800e-004 
1.455452e-004 
1.478999e-004 
1.505028e-004 
1.533208e-004 
1.563800e-004 
1.595839e-004 
1.628383e-004 
1.661492e-004 
1.694802e-004 
1.727366e-004 
1.758922e-004 
1.789491e-004 
1.818522e-004 
1.845610e-004 
1.870883e-004 
1.894249e-004 
1.915401e-004 
1.934429e-004 
1.951527e-004 
1.966619e-004 
1.979739e-004 
1.991161e-004 
2.000997e-004 
2.009293e-004 
2.016247e-004 
2.022063e-004 
2.026785e-004 
2.030552e-004 
2.033475e-004 
2.035645e-004 
2.037060e-004 
2.037805e-004 
2.037757e-004 
2.036907e-004 
2.035109e-004 
2.032611e-004 
2.028945e-004 
2.023472e-004 
1.000000e+000 
1.000000e+000 
1.164256e-004 
1.163521e-004 
1.163327e-004 
1.163823e-004 
1.165481e-004 
1.168252e-004 
1.171239e-004 
1.174826e-004 
1.179396e-004 
1.184410e-004 
1.189414e-004 
1.195115e-004 
1.201455e-004 
1.207733e-004 
1.214154e-004 
1.221395e-004 
1.228903e-004 
1.236314e-004 
1.244361e-004 
1.253264e-004 
1.262262e-004 
1.271634e-004 
1.282164e-004 
1.293461e-004 
1.305036e-004 
1.317697e-004 
1.331773e-004 
1.346531e-004 
1.362069e-004 
1.379265e-004 
1.397810e-004 
1.417091e-004 
1.437711e-004 
1.460131e-004 
1.483614e-004 
1.507963e-004 
1.533874e-004 
1.561204e-004 
1.589163e-004 
1.617901e-004 
1.647816e-004 
1.678335e-004 
1.708831e-004 
1.739526e-004 
1.770451e-004 
1.800879e-004 
1.830301e-004 
1.858878e-004 
1.886482e-004 
1.912305e-004 
1.935870e-004 
1.957478e-004 
1.976948e-004 
1.993263e-004 
2.006215e-004 
2.016497e-004 
2.023606e-004 
2.026399e-004 
2.025486e-004 
2.021734e-004 
2.013947e-004 
2.001529e-004 
1.986174e-004 
1.968110e-004 
1.945681e-004 
1.919794e-004 
1.892531e-004 
1.862767e-004 
1.829572e-004 
1.795552e-004 
1.761675e-004 
1.725909e-004 
1.689372e-004 
1.655028e-004 
1.621732e-004 
1.588264e-004 
1.557701e-004 
1.531214e-004 
1.506361e-004 
1.484201e-004 
1.467742e-004 
1.455420e-004 
1.445654e-004 
1.441239e-004 
1.442782e-004 
1.447368e-004 
1.455635e-004 
1.469813e-004 
1.487765e-004 
1.507612e-004 
1.531390e-004 
1.558982e-004 
1.587401e-004 
1.616896e-004 
1.648954e-004 
1.681465e-004 
1.712736e-004 
1.744321e-004 
1.776074e-004 
1.805642e-004 
1.833297e-004 
1.860417e-004 
1.885606e-004 
1.907726e-004 
1.928240e-004 
1.947474e-004 
1.963880e-004 
1.977845e-004 
1.990800e-004 
2.002080e-004 
2.010859e-004 
2.018429e-004 
2.025384e-004 
2.030674e-004 
2.034427e-004 
2.037966e-004 
2.040890e-004 
2.042410e-004 
2.043282e-004 
2.044192e-004 
2.044081e-004 
2.042865e-004 
2.041213e-004 
2.038787e-004 
2.034374e-004 
2.029169e-004 
1.000000e+000 
1.000000e+000 
1.156373e-004 
1.155505e-004 
1.156116e-004 
1.157604e-004 
1.159258e-004 
1.161928e-004 
1.165673e-004 
1.169634e-004 
1.173784e-004 
1.179056e-004 
1.184747e-004 
1.190130e-004 
1.196062e-004 
1.202986e-004 
1.209634e-004 
1.216121e-004 
1.223737e-004 
1.231948e-004 
1.239613e-004 
1.247963e-004 
1.257843e-004 
1.267812e-004 
1.277697e-004 
1.289372e-004 
1.302473e-004 
1.315393e-004 
1.329353e-004 
1.345844e-004 
1.363175e-004 
1.380632e-004 
1.400447e-004 
1.422693e-004 
1.445077e-004 
1.468492e-004 
1.495042e-004 
1.522981e-004 
1.550666e-004 
1.580425e-004 
1.612883e-004 
1.645098e-004 
1.677165e-004 
1.711702e-004 
1.747119e-004 
1.780749e-004 
1.814618e-004 
1.850042e-004 
1.883711e-004 
1.914781e-004 
1.946179e-004 
1.976853e-004 
2.003434e-004 
2.027506e-004 
2.051096e-004 
2.071097e-004 
2.086017e-004 
2.098928e-004 
2.109554e-004 
2.114497e-004 
2.115015e-004 
2.113661e-004 
2.108006e-004 
2.096504e-004 
2.082199e-004 
2.065509e-004 
2.043663e-004 
2.017859e-004 
1.990775e-004 
1.960835e-004 
1.927021e-004 
1.892142e-004 
1.856930e-004 
1.819615e-004 
1.781492e-004 
1.744812e-004 
1.708699e-004 
1.672872e-004 
1.639515e-004 
1.609124e-004 
1.580832e-004 
1.555765e-004 
1.535122e-004 
1.518297e-004 
1.505384e-004 
1.497384e-004 
1.494074e-004 
1.495004e-004 
1.500597e-004 
1.510694e-004 
1.524622e-004 
1.542340e-004 
1.563581e-004 
1.587497e-004 
1.613780e-004 
1.642180e-004 
1.671765e-004 
1.701985e-004 
1.732783e-004 
1.763432e-004 
1.793152e-004 
1.822006e-004 
1.849784e-004 
1.875695e-004 
1.899657e-004 
1.922005e-004 
1.942293e-004 
1.960186e-004 
1.976186e-004 
1.990460e-004 
2.002560e-004 
2.012764e-004 
2.021663e-004 
2.029098e-004 
2.034886e-004 
2.039682e-004 
2.043709e-004 
2.046633e-004 
2.048627e-004 
2.050283e-004 
2.051302e-004 
2.051481e-004 
2.051101e-004 
2.050306e-004 
2.048482e-004 
2.045891e-004 
2.042634e-004 
2.037773e-004 
1.000000e+000 
1.000000e+000 
1.147644e-004 
1.147593e-004 
1.148119e-004 
1.150004e-004 
1.152492e-004 
1.155323e-004 
1.158999e-004 
1.163568e-004 
1.168169e-004 
1.173089e-004 
1.178837e-004 
1.184929e-004 
1.190810e-004 
1.197218e-004 
1.204330e-004 
1.211414e-004 
1.218534e-004 
1.226570e-004 
1.235198e-004 
1.243853e-004 
1.253210e-004 
1.263859e-004 
1.275096e-004 
1.286857e-004 
1.300101e-004 
1.314859e-004 
1.330376e-004 
1.347156e-004 
1.366017e-004 
1.386429e-004 
1.407902e-004 
1.431317e-004 
1.457021e-004 
1.484101e-004 
1.512482e-004 
1.543123e-004 
1.575719e-004 
1.609194e-004 
1.643923e-004 
1.680648e-004 
1.718346e-004 
1.756044e-004 
1.794579e-004 
1.834161e-004 
1.873115e-004 
1.910984e-004 
1.948970e-004 
1.986381e-004 
2.021251e-004 
2.054137e-004 
2.086167e-004 
2.115492e-004 
2.140684e-004 
2.163506e-004 
2.184159e-004 
2.199966e-004 
2.211104e-004 
2.219905e-004 
2.224873e-004 
2.223745e-004 
2.218806e-004 
2.211488e-004 
2.198813e-004 
2.180614e-004 
2.160396e-004 
2.137310e-004 
2.108585e-004 
2.076935e-004 
2.044903e-004 
2.009521e-004 
1.970476e-004 
1.932079e-004 
1.894000e-004 
1.853306e-004 
1.812972e-004 
1.776017e-004 
1.739521e-004 
1.703168e-004 
1.671342e-004 
1.643653e-004 
1.617165e-004 
1.594649e-004 
1.578616e-004 
1.565980e-004 
1.556289e-004 
1.553044e-004 
1.555210e-004 
1.559841e-004 
1.568947e-004 
1.583864e-004 
1.601402e-004 
1.620862e-004 
1.644502e-004 
1.670837e-004 
1.697226e-004 
1.724944e-004 
1.754623e-004 
1.783597e-004 
1.811266e-004 
1.839260e-004 
1.866492e-004 
1.891091e-004 
1.914133e-004 
1.936363e-004 
1.956092e-004 
1.973065e-004 
1.988809e-004 
2.002974e-004 
2.014382e-004 
2.024021e-004 
2.032851e-004 
2.039933e-004 
2.045053e-004 
2.049560e-004 
2.053484e-004 
2.055943e-004 
2.057497e-004 
2.059099e-004 
2.060012e-004 
2.059815e-004 
2.059350e-004 
2.058844e-004 
2.057174e-004 
2.054273e-004 
2.050755e-004 
2.046777e-004 
1.000000e+000 
1.000000e+000 
1.137344e-004 
1.138353e-004 
1.139711e-004 
1.141637e-004 
1.144705e-004 
1.148360e-004 
1.151936e-004 
1.156438e-004 
1.161839e-004 
1.167049e-004 
1.172327e-004 
1.178749e-004 
1.185369e-004 
1.191489e-004 
1.198343e-004 
1.206265e-004 
1.213784e-004 
1.221358e-004 
1.230487e-004 
1.240306e-004 
1.249749e-004 
1.260504e-004 
1.273266e-004 
1.286294e-004 
1.299829e-004 
1.315990e-004 
1.333960e-004 
1.352152e-004 
1.372323e-004 
1.395758e-004 
1.420311e-004 
1.445679e-004 
1.474360e-004 
1.505814e-004 
1.537639e-004 
1.571279e-004 
1.608540e-004 
1.647035e-004 
1.685487e-004 
1.726472e-004 
1.769845e-004 
1.812478e-004 
1.855063e-004 
1.899839e-004 
1.944490e-004 
1.986826e-004 
2.029162e-004 
2.071943e-004 
2.111790e-004 
2.148663e-004 
2.185035e-004 
2.219131e-004 
2.248374e-004 
2.274715e-004 
2.299154e-004 
2.318746e-004 
2.333098e-004 
2.344660e-004 
2.352400e-004 
2.354102e-004 
2.351411e-004 
2.345587e-004 
2.334607e-004 
2.318286e-004 
2.298763e-004 
2.275651e-004 
2.247726e-004 
2.216461e-004 
2.182962e-004 
2.146331e-004 
2.107017e-004 
2.066564e-004 
2.024979e-004 
1.982289e-004 
1.939760e-004 
1.897934e-004 
1.856924e-004 
1.817744e-004 
1.780977e-004 
1.746671e-004 
1.715786e-004 
1.688936e-004 
1.665733e-004 
1.646813e-004 
1.633091e-004 
1.623813e-004 
1.618719e-004 
1.618907e-004 
1.623878e-004 
1.632278e-004 
1.644736e-004 
1.661518e-004 
1.680816e-004 
1.702110e-004 
1.726260e-004 
1.752064e-004 
1.777903e-004 
1.804417e-004 
1.831654e-004 
1.857789e-004 
1.882523e-004 
1.906830e-004 
1.929783e-004 
1.950205e-004 
1.969000e-004 
1.986594e-004 
2.001751e-004 
2.014519e-004 
2.026118e-004 
2.036182e-004 
2.043914e-004 
2.050309e-004 
2.056063e-004 
2.060335e-004 
2.063138e-004 
2.065675e-004 
2.067746e-004 
2.068605e-004 
2.068932e-004 
2.069411e-004 
2.069109e-004 
2.067758e-004 
2.066248e-004 
2.064547e-004 
2.061514e-004 
2.057064e-004 
1.000000e+000 
1.000000e+000 
1.126761e-004 
1.128333e-004 
1.130582e-004 
1.133104e-004 
1.136124e-004 
1.140269e-004 
1.144742e-004 
1.149200e-004 
1.154341e-004 
1.160334e-004 