# vtk DataFile Version 2.0
2D-ADE data file 
ASCII
DATASET RECTILINEAR_GRID
DIMENSIONS 128 128 1
X_COORDINATES 128 int
0 1 2 3 4 5 6 7 8 9 10 11 12 13 14 15 16 17 18 19 20 21 22 23 24 25 26 27 28 29 30 31 32 33 34 35 36 37 38 39 40 41 42 43 44 45 46 47 48 49 50 51 52 53 54 55 56 57 58 59 60 61 62 63 64 65 66 67 68 69 70 71 72 73 74 75 76 77 78 79 80 81 82 83 84 85 86 87 88 89 90 91 92 93 94 95 96 97 98 99 100 101 102 103 104 105 106 107 108 109 110 111 112 113 114 115 116 117 118 119 120 121 122 123 124 125 126 127 
Y_COORDINATES 128 int
0 1 2 3 4 5 6 7 8 9 10 11 12 13 14 15 16 17 18 19 20 21 22 23 24 25 26 27 28 29 30 31 32 33 34 35 36 37 38 39 40 41 42 43 44 45 46 47 48 49 50 51 52 53 54 55 56 57 58 59 60 61 62 63 64 65 66 67 68 69 70 71 72 73 74 75 76 77 78 79 80 81 82 83 84 85 86 87 88 89 90 91 92 93 94 95 96 97 98 99 100 101 102 103 104 105 106 107 108 109 110 111 112 113 114 115 116 117 118 119 120 121 122 123 124 125 126 127 
Z_COORDINATES 1 int
0
POINT_DATA 16384 
SCALARS density double 1
LOOKUP_TABLE default
1.000000e+000 
1.000000e+000 
1.000000e+000 
1.000000e+000 
1.000000e+000 
1.000000e+000 
1.000000e+000 
1.000000e+000 
1.000000e+000 
1.000000e+000 
1.000000e+000 
1.000000e+000 
1.000000e+000 
1.000000e+000 
1.000000e+000 
1.000000e+000 
1.000000e+000 
1.000000e+000 
1.000000e+000 
1.000000e+000 
1.000000e+000 
1.000000e+000 
1.000000e+000 
1.000000e+000 
1.000000e+000 
1.000000e+000 
1.000000e+000 
1.000000e+000 
1.000000e+000 
1.000000e+000 
1.000000e+000 
1.000000e+000 
1.000000e+000 
1.000000e+000 
1.000000e+000 
1.000000e+000 
1.000000e+000 
1.000000e+000 
1.000000e+000 
1.000000e+000 
1.000000e+000 
1.000000e+000 
1.000000e+000 
1.000000e+000 
1.000000e+000 
1.000000e+000 
1.000000e+000 
1.000000e+000 
1.000000e+000 
1.000000e+000 
1.000000e+000 
1.000000e+000 
1.000000e+000 
1.000000e+000 
1.000000e+000 
1.000000e+000 
1.000000e+000 
1.000000e+000 
1.000000e+000 
1.000000e+000 
1.000000e+000 
1.000000e+000 
1.000000e+000 
1.000000e+000 
1.000000e+000 
1.000000e+000 
1.000000e+000 
1.000000e+000 
1.000000e+000 
1.000000e+000 
1.000000e+000 
1.000000e+000 
1.000000e+000 
1.000000e+000 
1.000000e+000 
1.000000e+000 
1.000000e+000 
1.000000e+000 
1.000000e+000 
1.000000e+000 
1.000000e+000 
1.000000e+000 
1.000000e+000 
1.000000e+000 
1.000000e+000 
1.000000e+000 
1.000000e+000 
1.000000e+000 
1.000000e+000 
1.000000e+000 
1.000000e+000 
1.000000e+000 
1.000000e+000 
1.000000e+000 
1.000000e+000 
1.000000e+000 
1.000000e+000 
1.000000e+000 
1.000000e+000 
1.000000e+000 
1.000000e+000 
1.000000e+000 
1.000000e+000 
1.000000e+000 
1.000000e+000 
1.000000e+000 
1.000000e+000 
1.000000e+000 
1.000000e+000 
1.000000e+000 
1.000000e+000 
1.000000e+000 
1.000000e+000 
1.000000e+000 
1.000000e+000 
1.000000e+000 
1.000000e+000 
1.000000e+000 
1.000000e+000 
1.000000e+000 
1.000000e+000 
1.000000e+000 
1.000000e+000 
1.000000e+000 
1.000000e+000 
1.000000e+000 
1.000000e+000 
1.000000e+000 
1.000000e+000 
1.416461e-004 
1.416094e-004 
1.416086e-004 
1.416587e-004 
1.417155e-004 
1.418310e-004 
1.420067e-004 
1.421803e-004 
1.423622e-004 
1.425991e-004 
1.428656e-004 
1.430949e-004 
1.433631e-004 
1.436783e-004 
1.439847e-004 
1.442613e-004 
1.446129e-004 
1.449821e-004 
1.453171e-004 
1.456636e-004 
1.460969e-004 
1.465002e-004 
1.468757e-004 
1.473124e-004 
1.478051e-004 
1.482261e-004 
1.486620e-004 
1.491823e-004 
1.496928e-004 
1.501257e-004 
1.506315e-004 
1.511931e-004 
1.516758e-004 
1.521239e-004 
1.526780e-004 
1.532090e-004 
1.536305e-004 
1.540884e-004 
1.546241e-004 
1.550425e-004 
1.553821e-004 
1.558097e-004 
1.562197e-004 
1.564557e-004 
1.566901e-004 
1.569953e-004 
1.571593e-004 
1.571697e-004 
1.572487e-004 
1.573000e-004 
1.571275e-004 
1.568929e-004 
1.567300e-004 
1.564045e-004 
1.558725e-004 
1.553830e-004 
1.548818e-004 
1.541338e-004 
1.532975e-004 
1.525489e-004 
1.516687e-004 
1.505807e-004 
1.495555e-004 
1.485752e-004 
1.474044e-004 
1.461841e-004 
1.451198e-004 
1.440197e-004 
1.428000e-004 
1.417196e-004 
1.407915e-004 
1.398008e-004 
1.388655e-004 
1.381819e-004 
1.375940e-004 
1.370184e-004 
1.366700e-004 
1.365690e-004 
1.365304e-004 
1.366354e-004 
1.370354e-004 
1.376056e-004 
1.382587e-004 
1.391469e-004 
1.402750e-004 
1.414929e-004 
1.428317e-004 
1.443962e-004 
1.460788e-004 
1.478020e-004 
1.496476e-004 
1.516235e-004 
1.535995e-004 
1.555908e-004 
1.576515e-004 
1.597212e-004 
1.617164e-004 
1.637060e-004 
1.656807e-004 
1.675742e-004 
1.693638e-004 
1.711235e-004 
1.727898e-004 
1.743396e-004 
1.757837e-004 
1.771743e-004 
1.784239e-004 
1.795694e-004 
1.806132e-004 
1.815896e-004 
1.824108e-004 
1.831634e-004 
1.838106e-004 
1.843902e-004 
1.848191e-004 
1.852141e-004 
1.854892e-004 
1.857077e-004 
1.857827e-004 
1.858492e-004 
1.857881e-004 
1.856944e-004 
1.854886e-004 
1.853171e-004 
1.851561e-004 
1.850774e-004 
1.000000e+000 
1.000000e+000 
1.416636e-004 
1.416301e-004 
1.416200e-004 
1.416922e-004 
1.417548e-004 
1.418468e-004 
1.419988e-004 
1.421795e-004 
1.423570e-004 
1.425554e-004 
1.428152e-004 
1.430520e-004 
1.433042e-004 
1.435825e-004 
1.439024e-004 
1.441791e-004 
1.445016e-004 
1.448473e-004 
1.452066e-004 
1.455343e-004 
1.459318e-004 
1.463309e-004 
1.467258e-004 
1.471201e-004 
1.475834e-004 
1.480173e-004 
1.484517e-004 
1.489131e-004 
1.494142e-004 
1.498655e-004 
1.503391e-004 
1.508427e-004 
1.513429e-004 
1.517966e-004 
1.522902e-004 
1.527872e-004 
1.532469e-004 
1.536798e-004 
1.541454e-004 
1.545729e-004 
1.549516e-004 
1.553167e-004 
1.556799e-004 
1.559722e-004 
1.562175e-004 
1.564388e-004 
1.566159e-004 
1.567079e-004 
1.567484e-004 
1.567379e-004 
1.566557e-004 
1.564828e-004 
1.562415e-004 
1.559315e-004 
1.555417e-004 
1.550511e-004 
1.544841e-004 
1.538583e-004 
1.531488e-004 
1.523345e-004 
1.514740e-004 
1.505812e-004 
1.495984e-004 
1.485470e-004 
1.475185e-004 
1.464733e-004 
1.453542e-004 
1.442641e-004 
1.432633e-004 
1.422461e-004 
1.412325e-004 
1.403720e-004 
1.396185e-004 
1.388708e-004 
1.382619e-004 
1.378802e-004 
1.375778e-004 
1.373607e-004 
1.374036e-004 
1.376490e-004 
1.379532e-004 
1.384546e-004 
1.392356e-004 
1.401263e-004 
1.411005e-004 
1.423358e-004 
1.437489e-004 
1.451886e-004 
1.467566e-004 
1.485411e-004 
1.503482e-004 
1.521565e-004 
1.540975e-004 
1.561214e-004 
1.580497e-004 
1.599973e-004 
1.620099e-004 
1.639629e-004 
1.657820e-004 
1.676363e-004 
1.694414e-004 
1.711093e-004 
1.726639e-004 
1.742396e-004 
1.756596e-004 
1.769518e-004 
1.781600e-004 
1.793524e-004 
1.803306e-004 
1.812489e-004 
1.820828e-004 
1.828686e-004 
1.834333e-004 
1.840178e-004 
1.844785e-004 
1.848858e-004 
1.850947e-004 
1.853799e-004 
1.854831e-004 
1.855612e-004 
1.854817e-004 
1.855025e-004 
1.853280e-004 
1.851907e-004 
1.850801e-004 
1.850390e-004 
1.000000e+000 
1.000000e+000 
1.416460e-004 
1.416509e-004 
1.416379e-004 
1.416552e-004 
1.417472e-004 
1.418664e-004 
1.419680e-004 
1.421250e-004 
1.423376e-004 
1.425262e-004 
1.427185e-004 
1.429815e-004 
1.432547e-004 
1.434847e-004 
1.437636e-004 
1.441008e-004 
1.444003e-004 
1.446829e-004 
1.450528e-004 
1.454335e-004 
1.457549e-004 
1.461176e-004 
1.465648e-004 
1.469601e-004 
1.473219e-004 
1.477775e-004 
1.482629e-004 
1.486570e-004 
1.490836e-004 
1.496097e-004 
1.500817e-004 
1.504789e-004 
1.509755e-004 
1.515115e-004 
1.519286e-004 
1.523416e-004 
1.528705e-004 
1.533344e-004 
1.536775e-004 
1.540987e-004 
1.545725e-004 
1.548884e-004 
1.551511e-004 
1.555236e-004 
1.558249e-004 
1.559447e-004 
1.561057e-004 
1.563180e-004 
1.563406e-004 
1.562463e-004 
1.562439e-004 
1.561634e-004 
1.558548e-004 
1.555410e-004 
1.552791e-004 
1.548163e-004 
1.541971e-004 
1.536546e-004 
1.530538e-004 
1.522236e-004 
1.513766e-004 
1.506047e-004 
1.496784e-004 
1.486204e-004 
1.476656e-004 
1.467198e-004 
1.456252e-004 
1.445668e-004 
1.436508e-004 
1.426935e-004 
1.417078e-004 
1.408962e-004 
1.402000e-004 
1.394942e-004 
1.389190e-004 
1.385641e-004 
1.382961e-004 
1.381178e-004 
1.381693e-004 
1.384108e-004 
1.387487e-004 
1.392655e-004 
1.400108e-004 
1.408930e-004 
1.418968e-004 
1.430940e-004 
1.444491e-004 
1.458952e-004 
1.474577e-004 
1.491541e-004 
1.509207e-004 
1.527351e-004 
1.546159e-004 
1.565418e-004 
1.584639e-004 
1.603853e-004 
1.623026e-004 
1.641891e-004 
1.660188e-004 
1.678016e-004 
1.695210e-004 
1.711648e-004 
1.727194e-004 
1.741961e-004 
1.755778e-004 
1.768676e-004 
1.780536e-004 
1.791532e-004 
1.801499e-004 
1.810566e-004 
1.818589e-004 
1.825837e-004 
1.832088e-004 
1.837530e-004 
1.842010e-004 
1.845864e-004 
1.848749e-004 
1.850946e-004 
1.852331e-004 
1.853210e-004 
1.853211e-004 
1.852772e-004 
1.852007e-004 
1.850873e-004 
1.849544e-004 
1.848541e-004 
1.000000e+000 
1.000000e+000 
1.416073e-004 
1.415768e-004 
1.416007e-004 
1.416309e-004 
1.416966e-004 
1.418128e-004 
1.419389e-004 
1.420771e-004 
1.422549e-004 
1.424646e-004 
1.426617e-004 
1.428835e-004 
1.431391e-004 
1.434052e-004 
1.436580e-004 
1.439506e-004 
1.442641e-004 
1.445736e-004 
1.448849e-004 
1.452424e-004 
1.456022e-004 
1.459561e-004 
1.463302e-004 
1.467423e-004 
1.471395e-004 
1.475399e-004 
1.479708e-004 
1.484196e-004 
1.488448e-004 
1.492856e-004 
1.497534e-004 
1.502155e-004 
1.506540e-004 
1.511158e-004 
1.515885e-004 
1.520340e-004 
1.524601e-004 
1.529077e-004 
1.533415e-004 
1.537295e-004 
1.541021e-004 
1.544849e-004 
1.548210e-004 
1.550960e-004 
1.553607e-004 
1.556115e-004 
1.557759e-004 
1.558750e-004 
1.559683e-004 
1.560054e-004 
1.559210e-004 
1.557896e-004 
1.556456e-004 
1.553874e-004 
1.550044e-004 
1.546131e-004 
1.541752e-004 
1.535773e-004 
1.529071e-004 
1.522621e-004 
1.515128e-004 
1.506179e-004 
1.497493e-004 
1.489003e-004 
1.479087e-004 
1.468755e-004 
1.459592e-004 
1.450170e-004 
1.439752e-004 
1.430515e-004 
1.422670e-004 
1.414242e-004 
1.406252e-004 
1.400673e-004 
1.395975e-004 
1.391159e-004 
1.388539e-004 
1.388402e-004 
1.388555e-004 
1.389859e-004 
1.394285e-004 
1.400203e-004 
1.406433e-004 
1.415046e-004 
1.426237e-004 
1.437744e-004 
1.450184e-004 
1.465204e-004 
1.481251e-004 
1.497037e-004 
1.514286e-004 
1.533065e-004 
1.551366e-004 
1.569499e-004 
1.588912e-004 
1.608235e-004 
1.626379e-004 
1.644631e-004 
1.663272e-004 
1.680552e-004 
1.696790e-004 
1.713120e-004 
1.728763e-004 
1.742614e-004 
1.755936e-004 
1.768939e-004 
1.780554e-004 
1.790678e-004 
1.800671e-004 
1.809757e-004 
1.817371e-004 
1.824072e-004 
1.830706e-004 
1.835956e-004 
1.840147e-004 
1.843845e-004 
1.847283e-004 
1.849135e-004 
1.850563e-004 
1.851617e-004 
1.852197e-004 
1.851325e-004 
1.850731e-004 
1.849920e-004 
1.848595e-004 
1.846499e-004 
1.000000e+000 
1.000000e+000 
1.415512e-004 
1.414986e-004 
1.415099e-004 
1.415817e-004 
1.416362e-004 
1.417188e-004 
1.418734e-004 
1.420295e-004 
1.421607e-004 
1.423572e-004 
1.425939e-004 
1.427922e-004 
1.429997e-004 
1.432884e-004 
1.435625e-004 
1.437976e-004 
1.440937e-004 
1.444455e-004 
1.447358e-004 
1.450315e-004 
1.454176e-004 
1.457976e-004 
1.461095e-004 
1.464920e-004 
1.469420e-004 
1.473216e-004 
1.476803e-004 
1.481508e-004 
1.486157e-004 
1.489882e-004 
1.494172e-004 
1.499376e-004 
1.503680e-004 
1.507482e-004 
1.512413e-004 
1.517408e-004 
1.521087e-004 
1.525104e-004 
1.530118e-004 
1.534121e-004 
1.537121e-004 
1.541139e-004 
1.545234e-004 
1.547651e-004 
1.549922e-004 
1.553151e-004 
1.555206e-004 
1.555738e-004 
1.556907e-004 
1.558116e-004 
1.557313e-004 
1.555838e-004 
1.555084e-004 
1.553104e-004 
1.549225e-004 
1.545589e-004 
1.541950e-004 
1.536328e-004 
1.529764e-004 
1.523791e-004 
1.516858e-004 
1.508248e-004 
1.499842e-004 
1.491717e-004 
1.482291e-004 
1.472371e-004 
1.463327e-004 
1.454160e-004 
1.444359e-004 
1.435347e-004 
1.427332e-004 
1.419352e-004 
1.411974e-004 
1.406119e-004 
1.401283e-004 
1.397241e-004 
1.394771e-004 
1.393983e-004 
1.394481e-004 
1.396511e-004 
1.400362e-004 
1.405839e-004 
1.412891e-004 
1.421584e-004 
1.431823e-004 
1.443560e-004 
1.456711e-004 
1.470994e-004 
1.486396e-004 
1.502912e-004 
1.520142e-004 
1.537825e-004 
1.556165e-004 
1.574878e-004 
1.593463e-004 
1.611997e-004 
1.630634e-004 
1.648790e-004 
1.666275e-004 
1.683404e-004 
1.700035e-004 
1.715591e-004 
1.730356e-004 
1.744535e-004 
1.757747e-004 
1.769736e-004 
1.781069e-004 
1.791589e-004 
1.800962e-004 
1.809316e-004 
1.817167e-004 
1.824001e-004 
1.829821e-004 
1.834932e-004 
1.839567e-004 
1.843070e-004 
1.845902e-004 
1.848222e-004 
1.849969e-004 
1.850627e-004 
1.851027e-004 
1.850998e-004 
1.850326e-004 
1.848842e-004 
1.846901e-004 
1.844845e-004 
1.000000e+000 
1.000000e+000 
1.414056e-004 
1.413966e-004 
1.414021e-004 
1.414608e-004 
1.415518e-004 
1.416463e-004 
1.417590e-004 
1.419207e-004 
1.420924e-004 
1.422560e-004 
1.424531e-004 
1.426871e-004 
1.429084e-004 
1.431308e-004 
1.434010e-004 
1.436858e-004 
1.439474e-004 
1.442342e-004 
1.445693e-004 
1.448910e-004 
1.451983e-004 
1.455555e-004 
1.459409e-004 
1.462916e-004 
1.466544e-004 
1.470764e-004 
1.474906e-004 
1.478680e-004 
1.482903e-004 
1.487548e-004 
1.491744e-004 
1.495796e-004 
1.500503e-004 
1.505202e-004 
1.509253e-004 
1.513541e-004 
1.518393e-004 
1.522676e-004 
1.526402e-004 
1.530708e-004 
1.535099e-004 
1.538447e-004 
1.541623e-004 
1.545418e-004 
1.548511e-004 
1.550433e-004 
1.552680e-004 
1.555076e-004 
1.555973e-004 
1.556069e-004 
1.556761e-004 
1.556650e-004 
1.554689e-004 
1.552688e-004 
1.550981e-004 
1.547447e-004 
1.542531e-004 
1.538281e-004 
1.533414e-004 
1.526322e-004 
1.519070e-004 
1.512593e-004 
1.504488e-004 
1.494934e-004 
1.486551e-004 
1.478295e-004 
1.468180e-004 
1.458405e-004 
1.450394e-004 
1.441660e-004 
1.432183e-004 
1.424854e-004 
1.418839e-004 
1.411988e-004 
1.406425e-004 
1.403716e-004 
1.401416e-004 
1.399340e-004 
1.400211e-004 
1.403237e-004 
1.406277e-004 
1.411123e-004 
1.419098e-004 
1.427896e-004 
1.437165e-004 
1.449116e-004 
1.462936e-004 
1.476641e-004 
1.491548e-004 
1.508640e-004 
1.525895e-004 
1.542871e-004 
1.561236e-004 
1.580311e-004 
1.598411e-004 
1.616488e-004 
1.635328e-004 
1.653388e-004 
1.670228e-004 
1.687192e-004 
1.703865e-004 
1.718976e-004 
1.733209e-004 
1.747364e-004 
1.760343e-004 
1.771802e-004 
1.782810e-004 
1.793303e-004 
1.802266e-004 
1.810232e-004 
1.817928e-004 
1.824704e-004 
1.830114e-004 
1.835082e-004 
1.839673e-004 
1.843157e-004 
1.845698e-004 
1.848108e-004 
1.849877e-004 
1.850622e-004 
1.850837e-004 
1.850918e-004 
1.849989e-004 
1.848503e-004 
1.846795e-004 
1.844186e-004 
1.000000e+000 
1.000000e+000 
1.412218e-004 
1.412604e-004 
1.412879e-004 
1.413186e-004 
1.414180e-004 
1.415528e-004 
1.416524e-004 
1.417846e-004 
1.419813e-004 
1.421596e-004 
1.423167e-004 
1.425408e-004 
1.427930e-004 
1.429968e-004 
1.432261e-004 
1.435283e-004 
1.438056e-004 
1.440482e-004 
1.443658e-004 
1.447192e-004 
1.450112e-004 
1.453219e-004 
1.457220e-004 
1.460939e-004 
1.464139e-004 
1.468127e-004 
1.472615e-004 
1.476313e-004 
1.480062e-004 
1.484828e-004 
1.489331e-004 
1.493046e-004 
1.497512e-004 
1.502598e-004 
1.506743e-004 
1.510662e-004 
1.515647e-004 
1.520375e-004 
1.524014e-004 
1.528174e-004 
1.533000e-004 
1.536714e-004 
1.539808e-004 
1.543775e-004 
1.547442e-004 
1.549672e-004 
1.551985e-004 
1.554784e-004 
1.556306e-004 
1.556736e-004 
1.557608e-004 
1.558022e-004 
1.556763e-004 
1.555071e-004 
1.553527e-004 
1.550668e-004 
1.546487e-004 
1.542301e-004 
1.537599e-004 
1.531418e-004 
1.524645e-004 
1.517852e-004 
1.510173e-004 
1.501611e-004 
1.493055e-004 
1.484362e-004 
1.475150e-004 
1.465926e-004 
1.457034e-004 
1.448324e-004 
1.439965e-004 
1.432224e-004 
1.425206e-004 
1.419176e-004 
1.414206e-004 
1.410222e-004 
1.407663e-004 
1.406792e-004 
1.407155e-004 
1.408916e-004 
1.412765e-004 
1.418278e-004 
1.424903e-004 
1.433396e-004 
1.443928e-004 
1.455440e-004 
1.468035e-004 
1.482546e-004 
1.498158e-004 
1.514030e-004 
1.530992e-004 
1.549136e-004 
1.567138e-004 
1.585078e-004 
1.603807e-004 
1.622479e-004 
1.640200e-004 
1.657847e-004 
1.675559e-004 
1.692151e-004 
1.707688e-004 
1.723111e-004 
1.737744e-004 
1.750859e-004 
1.763254e-004 
1.775293e-004 
1.785963e-004 
1.795381e-004 
1.804422e-004 
1.812741e-004 
1.819599e-004 
1.825787e-004 
1.831675e-004 
1.836545e-004 
1.840275e-004 
1.843831e-004 
1.846871e-004 
1.848823e-004 
1.850108e-004 
1.851362e-004 
1.851728e-004 
1.851267e-004 
1.850433e-004 
1.849095e-004 
1.846384e-004 
1.843317e-004 
1.000000e+000 
1.000000e+000 
1.410383e-004 
1.410474e-004 
1.411165e-004 
1.412001e-004 
1.412712e-004 
1.413870e-004 
1.415410e-004 
1.416780e-004 
1.418180e-004 
1.420163e-004 
1.422200e-004 
1.423938e-004 
1.426049e-004 
1.428679e-004 
1.430997e-004 
1.433208e-004 
1.436111e-004 
1.439187e-004 
1.441757e-004 
1.444671e-004 
1.448310e-004 
1.451621e-004 
1.454587e-004 
1.458359e-004 
1.462485e-004 
1.465910e-004 
1.469508e-004 
1.474067e-004 
1.478328e-004 
1.481925e-004 
1.486323e-004 
1.491332e-004 
1.495440e-004 
1.499404e-004 
1.504514e-004 
1.509437e-004 
1.513273e-004 
1.517737e-004 
1.523075e-004 
1.527318e-004 
1.530889e-004 
1.535640e-004 
1.540328e-004 
1.543386e-004 
1.546623e-004 
1.550896e-004 
1.553851e-004 
1.555380e-004 
1.557873e-004 
1.560393e-004 
1.560674e-004 
1.560459e-004 
1.561311e-004 
1.560692e-004 
1.557880e-004 
1.555710e-004 
1.553736e-004 
1.549170e-004 
1.543571e-004 
1.539183e-004 
1.533546e-004 
1.525450e-004 
1.518002e-004 
1.511301e-004 
1.502359e-004 
1.492537e-004 
1.484523e-004 
1.476128e-004 
1.465923e-004 
1.457028e-004 
1.449897e-004 
1.441663e-004 
1.433494e-004 
1.428074e-004 
1.423503e-004 
1.418379e-004 
1.415475e-004 
1.415247e-004 
1.415129e-004 
1.416028e-004 
1.420143e-004 
1.425787e-004 
1.431685e-004 
1.439955e-004 
1.450794e-004 
1.462026e-004 
1.474211e-004 
1.488865e-004 
1.504530e-004 
1.520106e-004 
1.537017e-004 
1.555273e-004 
1.573159e-004 
1.590971e-004 
1.609724e-004 
1.628328e-004 
1.645923e-004 
1.663494e-004 
1.681086e-004 
1.697499e-004 
1.712916e-004 
1.728145e-004 
1.742515e-004 
1.755433e-004 
1.767639e-004 
1.779335e-004 
1.789732e-004 
1.798964e-004 
1.807713e-004 
1.815665e-004 
1.822360e-004 
1.828350e-004 
1.833916e-004 
1.838563e-004 
1.842265e-004 
1.845598e-004 
1.848424e-004 
1.850359e-004 
1.851667e-004 
1.852728e-004 
1.853062e-004 
1.852516e-004 
1.851489e-004 
1.850143e-004 
1.847847e-004 
1.844312e-004 
1.000000e+000 
1.000000e+000 
1.408294e-004 
1.408515e-004 
1.409123e-004 
1.410314e-004 
1.411297e-004 
1.412246e-004 
1.413795e-004 
1.415511e-004 
1.416841e-004 
1.418506e-004 
1.420704e-004 
1.422651e-004 
1.424426e-004 
1.426853e-004 
1.429460e-004 
1.431638e-004 
1.434106e-004 
1.437230e-004 
1.440078e-004 
1.442702e-004 
1.446020e-004 
1.449617e-004 
1.452689e-004 
1.456028e-004 
1.460109e-004 
1.463927e-004 
1.467387e-004 
1.471575e-004 
1.476115e-004 
1.480050e-004 
1.484135e-004 
1.489038e-004 
1.493689e-004 
1.497833e-004 
1.502626e-004 
1.507841e-004 
1.512363e-004 
1.516834e-004 
1.522055e-004 
1.527027e-004 
1.531282e-004 
1.535918e-004 
1.540876e-004 
1.545036e-004 
1.548778e-004 
1.552921e-004 
1.556682e-004 
1.559475e-004 
1.562107e-004 
1.564695e-004 
1.566345e-004 
1.567148e-004 
1.567717e-004 
1.567669e-004 
1.566528e-004 
1.564650e-004 
1.562230e-004 
1.558943e-004 
1.554682e-004 
1.549646e-004 
1.543970e-004 
1.537618e-004 
1.530419e-004 
1.522530e-004 
1.514434e-004 
1.506001e-004 
1.496858e-004 
1.487661e-004 
1.479003e-004 
1.470179e-004 
1.461178e-004 
1.453291e-004 
1.446393e-004 
1.439478e-004 
1.433576e-004 
1.429767e-004 
1.426804e-004 
1.424421e-004 
1.424407e-004 
1.426489e-004 
1.429093e-004 
1.433367e-004 
1.440507e-004 
1.448785e-004 
1.457697e-004 
1.469104e-004 
1.482483e-004 
1.495942e-004 
1.510546e-004 
1.527347e-004 
1.544436e-004 
1.561202e-004 
1.579346e-004 
1.598278e-004 
1.616161e-004 
1.633927e-004 
1.652538e-004 
1.670305e-004 
1.686672e-004 
1.703172e-004 
1.719434e-004 
1.733918e-004 
1.747436e-004 
1.760976e-004 
1.773277e-004 
1.783845e-004 
1.794063e-004 
1.803851e-004 
1.811972e-004 
1.819040e-004 
1.826080e-004 
1.832183e-004 
1.836831e-004 
1.841183e-004 
1.845392e-004 
1.848369e-004 
1.850481e-004 
1.852695e-004 
1.854320e-004 
1.854723e-004 
1.854825e-004 
1.854895e-004 
1.853821e-004 
1.851602e-004 
1.848991e-004 
1.846025e-004 
1.000000e+000 
1.000000e+000 
1.405495e-004 
1.406486e-004 
1.407213e-004 
1.408087e-004 
1.409539e-004 
1.410951e-004 
1.412036e-004 
1.413632e-004 
1.415613e-004 
1.417162e-004 
1.418717e-004 
1.421030e-004 
1.423263e-004 
1.425000e-004 
1.427308e-004 
1.430233e-004 
1.432577e-004 
1.434826e-004 
1.438061e-004 
1.441343e-004 
1.443869e-004 
1.447008e-004 
1.451051e-004 
1.454427e-004 
1.457440e-004 
1.461668e-004 
1.466138e-004 
1.469562e-004 
1.473474e-004 
1.478648e-004 
1.483128e-004 
1.486867e-004 
1.491938e-004 
1.497576e-004 
1.501859e-004 
1.506332e-004 
1.512386e-004 
1.517821e-004 
1.521981e-004 
1.527384e-004 
1.533675e-004 
1.538283e-004 
1.542491e-004 
1.548392e-004 
1.553730e-004 
1.557085e-004 
1.561225e-004 
1.566412e-004 
1.569534e-004 
1.571389e-004 
1.574720e-004 
1.577481e-004 
1.577516e-004 
1.577628e-004 
1.578779e-004 
1.577620e-004 
1.574412e-004 
1.572364e-004 
1.569878e-004 
1.564358e-004 
1.558469e-004 
1.553770e-004 
1.547066e-004 
1.538258e-004 
1.530704e-004 
1.523326e-004 
1.513540e-004 
1.503767e-004 
1.495812e-004 
1.486936e-004 
1.476946e-004 
1.468936e-004 
1.462175e-004 
1.454467e-004 
1.447855e-004 
1.443903e-004 
1.440411e-004 
1.437235e-004 
1.436764e-004 
1.438347e-004 
1.440307e-004 
1.444113e-004 
1.450714e-004 
1.458402e-004 
1.467037e-004 
1.478073e-004 
1.490823e-004 
1.504080e-004 
1.518677e-004 
1.534961e-004 
1.551691e-004 
1.568699e-004 
1.586699e-004 
1.605096e-004 
1.623105e-004 
1.641143e-004 
1.659298e-004 
1.676801e-004 
1.693557e-004 
1.709950e-004 
1.725635e-004 
1.740208e-004 
1.753951e-004 
1.766956e-004 
1.778858e-004 
1.789675e-004 
1.799694e-004 
1.808801e-004 
1.816847e-004 
1.824050e-004 
1.830528e-004 
1.836162e-004 
1.840990e-004 
1.845198e-004 
1.848785e-004 
1.851709e-004 
1.854030e-004 
1.855851e-004 
1.857128e-004 
1.857834e-004 
1.857934e-004 
1.857474e-004 
1.856342e-004 
1.854634e-004 
1.852167e-004 
1.848616e-004 
1.000000e+000 
1.000000e+000 
1.402704e-004 
1.403935e-004 
1.405187e-004 
1.406166e-004 
1.407452e-004 
1.409171e-004 
1.410596e-004 
1.411922e-004 
1.413761e-004 
1.415719e-004 
1.417294e-004 
1.419133e-004 
1.421476e-004 
1.423614e-004 
1.425571e-004 
1.428104e-004 
1.430882e-004 
1.433301e-004 
1.435931e-004 
1.439188e-004 
1.442326e-004 
1.445236e-004 
1.448712e-004 
1.452570e-004 
1.456074e-004 
1.459711e-004 
1.464027e-004 
1.468335e-004 
1.472350e-004 
1.476871e-004 
1.481880e-004 
1.486595e-004 
1.491316e-004 
1.496700e-004 
1.502209e-004 
1.507376e-004 
1.512859e-004 
1.518863e-004 
1.524650e-004 
1.530207e-004 
1.536184e-004 
1.542342e-004 
1.548044e-004 
1.553590e-004 
1.559416e-004 
1.565026e-004 
1.569963e-004 
1.574681e-004 
1.579420e-004 
1.583512e-004 
1.586661e-004 
1.589504e-004 
1.592081e-004 
1.593491e-004 
1.593769e-004 
1.593816e-004 
1.593205e-004 
1.590920e-004 
1.587722e-004 
1.584489e-004 
1.580023e-004 
1.573798e-004 
1.567454e-004 
1.561073e-004 
1.552947e-004 
1.543882e-004 
1.535697e-004 
1.527053e-004 
1.516861e-004 
1.507404e-004 
1.499286e-004 
1.490231e-004 
1.481021e-004 
1.474169e-004 
1.468202e-004 
1.461587e-004 
1.456945e-004 
1.455083e-004 
1.453307e-004 
1.452301e-004 
1.454736e-004 
1.458912e-004 
1.463037e-004 
1.469659e-004 
1.479384e-004 
1.489337e-004 
1.500042e-004 
1.513838e-004 
1.528883e-004 
1.543385e-004 
1.559517e-004 
1.577621e-004 
1.595017e-004 
1.612083e-004 
1.630736e-004 
1.649340e-004 
1.666338e-004 
1.683524e-004 
1.701231e-004 
1.717296e-004 
1.732007e-004 
1.747037e-004 
1.761229e-004 
1.773340e-004 
1.784850e-004 
1.796285e-004 
1.806017e-004 
1.814229e-004 
1.822414e-004 
1.829909e-004 
1.835641e-004 
1.840779e-004 
1.845981e-004 
1.850034e-004 
1.852858e-004 
1.855784e-004 
1.858433e-004 
1.859802e-004 
1.860624e-004 
1.861670e-004 
1.861870e-004 
1.860969e-004 
1.859879e-004 
1.858412e-004 
1.855369e-004 
1.851664e-004 
1.000000e+000 
1.000000e+000 
1.400186e-004 
1.401145e-004 
1.402644e-004 
1.404409e-004 
1.405611e-004 
1.406945e-004 
1.408922e-004 
1.410621e-004 
1.411862e-004 
1.413779e-004 
1.416037e-004 
1.417620e-004 
1.419328e-004 
1.421967e-004 
1.424320e-004 
1.426091e-004 
1.428724e-004 
1.431963e-004 
1.434361e-004 
1.436838e-004 
1.440566e-004 
1.444093e-004 
1.446764e-004 
1.450430e-004 
1.455030e-004 
1.458633e-004 
1.462093e-004 
1.467141e-004 
1.472171e-004 
1.476013e-004 
1.480842e-004 
1.487040e-004 
1.492158e-004 
1.496776e-004 
1.503233e-004 
1.509991e-004 
1.515185e-004 
1.521136e-004 
1.528840e-004 
1.535441e-004 
1.540957e-004 
1.548274e-004 
1.556149e-004 
1.561984e-004 
1.567950e-004 
1.575738e-004 
1.582308e-004 
1.586956e-004 
1.592886e-004 
1.599377e-004 
1.603276e-004 
1.606362e-004 
1.610924e-004 
1.614089e-004 
1.614530e-004 
1.615483e-004 
1.616835e-004 
1.615315e-004 
1.612259e-004 
1.610279e-004 
1.606990e-004 
1.600842e-004 
1.594835e-004 
1.589326e-004 
1.581444e-004 
1.572233e-004 
1.564206e-004 
1.555602e-004 
1.545139e-004 
1.535346e-004 
1.526705e-004 
1.517105e-004 
1.507454e-004 
1.499688e-004 
1.492587e-004 
1.485418e-004 
1.479988e-004 
1.476508e-004 
1.473695e-004 
1.472273e-004 
1.473237e-004 
1.475726e-004 
1.479487e-004 
1.485401e-004 
1.493229e-004 
1.502340e-004 
1.513117e-004 
1.525611e-004 
1.539224e-004 
1.553958e-004 
1.569884e-004 
1.586486e-004 
1.603590e-004 
1.621288e-004 
1.639121e-004 
1.656773e-004 
1.674422e-004 
1.691794e-004 
1.708405e-004 
1.724429e-004 
1.739930e-004 
1.754403e-004 
1.767802e-004 
1.780504e-004 
1.792243e-004 
1.802701e-004 
1.812264e-004 
1.821104e-004 
1.828796e-004 
1.835458e-004 
1.841551e-004 
1.846890e-004 
1.851206e-004 
1.854968e-004 
1.858332e-004 
1.860917e-004 
1.862808e-004 
1.864475e-004 
1.865632e-004 
1.866040e-004 
1.866002e-004 
1.865631e-004 
1.864399e-004 
1.862526e-004 
1.860237e-004 
1.856848e-004 
1.000000e+000 
1.000000e+000 
1.397254e-004 
1.398790e-004 
1.400205e-004 
1.402045e-004 
1.403856e-004 
1.405276e-004 
1.406866e-004 
1.408871e-004 
1.410581e-004 
1.412065e-004 
1.414037e-004 
1.416235e-004 
1.418004e-004 
1.419920e-004 
1.422470e-004 
1.424929e-004 
1.427057e-004 
1.429748e-004 
1.432934e-004 
1.435746e-004 
1.438574e-004 
1.442216e-004 
1.445983e-004 
1.449324e-004 
1.453158e-004 
1.457759e-004 
1.462086e-004 
1.466252e-004 
1.471306e-004 
1.476796e-004 
1.481804e-004 
1.487138e-004 
1.493484e-004 
1.499790e-004 
1.505695e-004 
1.512419e-004 
1.519923e-004 
1.526926e-004 
1.533849e-004 
1.541864e-004 
1.550080e-004 
1.557469e-004 
1.565216e-004 
1.573920e-004 
1.581985e-004 
1.589146e-004 
1.597043e-004 
1.605235e-004 
1.611904e-004 
1.617943e-004 
1.624801e-004 
1.630790e-004 
1.634716e-004 
1.638623e-004 
1.642859e-004 
1.644898e-004 
1.645126e-004 
1.645970e-004 
1.645978e-004 
1.643015e-004 
1.639410e-004 
1.636519e-004 
1.631367e-004 
1.623787e-004 
1.617114e-004 
1.610348e-004 
1.600638e-004 
1.590482e-004 
1.582120e-004 
1.572393e-004 
1.560734e-004 
1.551056e-004 
1.542716e-004 
1.532492e-004 
1.522918e-004 
1.516611e-004 
1.510354e-004 
1.503406e-004 
1.499706e-004 
1.498608e-004 
1.496854e-004 
1.496796e-004 
1.500752e-004 
1.505528e-004 
1.510369e-004 
1.518652e-004 
1.529483e-004 
1.539860e-004 
1.551717e-004 
1.566716e-004 
1.581929e-004 
1.596663e-004 
1.613513e-004 
1.631518e-004 
1.648188e-004 
1.665001e-004 
1.683165e-004 
1.700345e-004 
1.715984e-004 
1.732100e-004 
1.748034e-004 
1.761909e-004 
1.774868e-004 
1.788012e-004 
1.799708e-004 
1.809518e-004 
1.819094e-004 
1.828217e-004 
1.835475e-004 
1.841709e-004 
1.848002e-004 
1.853293e-004 
1.857085e-004 
1.860710e-004 
1.864250e-004 
1.866571e-004 
1.868090e-004 
1.869856e-004 
1.871105e-004 
1.871195e-004 
1.871038e-004 
1.870979e-004 
1.869854e-004 
1.867603e-004 
1.865084e-004 
1.862275e-004 
1.000000e+000 
1.000000e+000 
1.393928e-004 
1.396329e-004 
1.398192e-004 
1.399640e-004 
1.401700e-004 
1.403851e-004 
1.405216e-004 
1.406806e-004 
1.409092e-004 
1.410876e-004 
1.412198e-004 
1.414397e-004 
1.416852e-004 
1.418488e-004 
1.420455e-004 
1.423464e-004 
1.425995e-004 
1.428003e-004 
1.431144e-004 
1.434804e-004 
1.437490e-004 
1.440535e-004 
1.444977e-004 
1.449000e-004 
1.452282e-004 
1.456918e-004 
1.462404e-004 
1.466772e-004 
1.471388e-004 
1.477807e-004 
1.483984e-004 
1.489153e-004 
1.495788e-004 
1.503722e-004 
1.510451e-004 
1.517163e-004 
1.525978e-004 
1.534808e-004 
1.542260e-004 
1.550989e-004 
1.561315e-004 
1.570308e-004 
1.578688e-004 
1.589035e-004 
1.599459e-004 
1.607929e-004 
1.616961e-004 
1.627410e-004 
1.636209e-004 
1.643482e-004 
1.651988e-004 
1.660278e-004 
1.665971e-004 
1.671187e-004 
1.677172e-004 
1.681166e-004 
1.682873e-004 
1.684875e-004 
1.686270e-004 
1.684874e-004 
1.682345e-004 
1.679992e-004 
1.675763e-004 
1.669371e-004 
1.662886e-004 
1.655845e-004 
1.646825e-004 
1.637090e-004 
1.627596e-004 
1.617197e-004 
1.606001e-004 
1.595287e-004 
1.584794e-004 
1.574136e-004 
1.564184e-004 
1.555191e-004 
1.546860e-004 
1.539735e-004 
1.534079e-004 
1.529613e-004 
1.526839e-004 
1.526059e-004 
1.526688e-004 
1.529036e-004 
1.533760e-004 
1.540085e-004 
1.547644e-004 
1.557398e-004 
1.568981e-004 
1.581212e-004 
1.594729e-004 
1.610031e-004 
1.625712e-004 
1.641433e-004 
1.658281e-004 
1.675552e-004 
1.691956e-004 
1.708297e-004 
1.725024e-004 
1.740717e-004 
1.755182e-004 
1.769577e-004 
1.783316e-004 
1.795320e-004 
1.806457e-004 
1.817317e-004 
1.826761e-004 
1.834700e-004 
1.842306e-004 
1.849269e-004 
1.854676e-004 
1.859341e-004 
1.863936e-004 
1.867562e-004 
1.870055e-004 
1.872517e-004 
1.874744e-004 
1.875881e-004 
1.876519e-004 
1.877342e-004 
1.877431e-004 
1.876489e-004 
1.875434e-004 
1.874225e-004 
1.871783e-004 
1.868286e-004 
1.000000e+000 
1.000000e+000 
1.391173e-004 
1.393443e-004 
1.395912e-004 
1.397977e-004 
1.399696e-004 
1.401798e-004 
1.403925e-004 
1.405493e-004 
1.407137e-004 
1.409361e-004 