# vtk DataFile Version 2.0
2D-ADE data file 
ASCII
DATASET RECTILINEAR_GRID
DIMENSIONS 128 128 1
X_COORDINATES 128 int
0 1 2 3 4 5 6 7 8 9 10 11 12 13 14 15 16 17 18 19 20 21 22 23 24 25 26 27 28 29 30 31 32 33 34 35 36 37 38 39 40 41 42 43 44 45 46 47 48 49 50 51 52 53 54 55 56 57 58 59 60 61 62 63 64 65 66 67 68 69 70 71 72 73 74 75 76 77 78 79 80 81 82 83 84 85 86 87 88 89 90 91 92 93 94 95 96 97 98 99 100 101 102 103 104 105 106 107 108 109 110 111 112 113 114 115 116 117 118 119 120 121 122 123 124 125 126 127 
Y_COORDINATES 128 int
0 1 2 3 4 5 6 7 8 9 10 11 12 13 14 15 16 17 18 19 20 21 22 23 24 25 26 27 28 29 30 31 32 33 34 35 36 37 38 39 40 41 42 43 44 45 46 47 48 49 50 51 52 53 54 55 56 57 58 59 60 61 62 63 64 65 66 67 68 69 70 71 72 73 74 75 76 77 78 79 80 81 82 83 84 85 86 87 88 89 90 91 92 93 94 95 96 97 98 99 100 101 102 103 104 105 106 107 108 109 110 111 112 113 114 115 116 117 118 119 120 121 122 123 124 125 126 127 
Z_COORDINATES 1 int
0
POINT_DATA 16384 
SCALARS density double 1
LOOKUP_TABLE default
1.000000e+000 
1.000000e+000 
1.000000e+000 
1.000000e+000 
1.000000e+000 
1.000000e+000 
1.000000e+000 
1.000000e+000 
1.000000e+000 
1.000000e+000 
1.000000e+000 
1.000000e+000 
1.000000e+000 
1.000000e+000 
1.000000e+000 
1.000000e+000 
1.000000e+000 
1.000000e+000 
1.000000e+000 
1.000000e+000 
1.000000e+000 
1.000000e+000 
1.000000e+000 
1.000000e+000 
1.000000e+000 
1.000000e+000 
1.000000e+000 
1.000000e+000 
1.000000e+000 
1.000000e+000 
1.000000e+000 
1.000000e+000 
1.000000e+000 
1.000000e+000 
1.000000e+000 
1.000000e+000 
1.000000e+000 
1.000000e+000 
1.000000e+000 
1.000000e+000 
1.000000e+000 
1.000000e+000 
1.000000e+000 
1.000000e+000 
1.000000e+000 
1.000000e+000 
1.000000e+000 
1.000000e+000 
1.000000e+000 
1.000000e+000 
1.000000e+000 
1.000000e+000 
1.000000e+000 
1.000000e+000 
1.000000e+000 
1.000000e+000 
1.000000e+000 
1.000000e+000 
1.000000e+000 
1.000000e+000 
1.000000e+000 
1.000000e+000 
1.000000e+000 
1.000000e+000 
1.000000e+000 
1.000000e+000 
1.000000e+000 
1.000000e+000 
1.000000e+000 
1.000000e+000 
1.000000e+000 
1.000000e+000 
1.000000e+000 
1.000000e+000 
1.000000e+000 
1.000000e+000 
1.000000e+000 
1.000000e+000 
1.000000e+000 
1.000000e+000 
1.000000e+000 
1.000000e+000 
1.000000e+000 
1.000000e+000 
1.000000e+000 
1.000000e+000 
1.000000e+000 
1.000000e+000 
1.000000e+000 
1.000000e+000 
1.000000e+000 
1.000000e+000 
1.000000e+000 
1.000000e+000 
1.000000e+000 
1.000000e+000 
1.000000e+000 
1.000000e+000 
1.000000e+000 
1.000000e+000 
1.000000e+000 
1.000000e+000 
1.000000e+000 
1.000000e+000 
1.000000e+000 
1.000000e+000 
1.000000e+000 
1.000000e+000 
1.000000e+000 
1.000000e+000 
1.000000e+000 
1.000000e+000 
1.000000e+000 
1.000000e+000 
1.000000e+000 
1.000000e+000 
1.000000e+000 
1.000000e+000 
1.000000e+000 
1.000000e+000 
1.000000e+000 
1.000000e+000 
1.000000e+000 
1.000000e+000 
1.000000e+000 
1.000000e+000 
1.000000e+000 
1.000000e+000 
1.000000e+000 
3.071076e-004 
3.070178e-004 
3.071021e-004 
3.074328e-004 
3.080240e-004 
3.088345e-004 
3.098225e-004 
3.109514e-004 
3.121878e-004 
3.135014e-004 
3.148654e-004 
3.162561e-004 
3.176531e-004 
3.190388e-004 
3.203979e-004 
3.217172e-004 
3.229855e-004 
3.241933e-004 
3.253326e-004 
3.263966e-004 
3.273795e-004 
3.282768e-004 
3.290845e-004 
3.297995e-004 
3.304192e-004 
3.309415e-004 
3.313649e-004 
3.316879e-004 
3.319097e-004 
3.320294e-004 
3.320464e-004 
3.319603e-004 
3.317709e-004 
3.314780e-004 
3.310814e-004 
3.305811e-004 
3.299772e-004 
3.292699e-004 
3.284593e-004 
3.275457e-004 
3.265296e-004 
3.254115e-004 
3.241920e-004 
3.228720e-004 
3.214523e-004 
3.199341e-004 
3.183188e-004 
3.166079e-004 
3.148033e-004 
3.129072e-004 
3.109217e-004 
3.088498e-004 
3.066944e-004 
3.044589e-004 
3.021471e-004 
2.997630e-004 
2.973111e-004 
2.947963e-004 
2.922240e-004 
2.895997e-004 
2.869295e-004 
2.842199e-004 
2.814777e-004 
2.787100e-004 
2.759245e-004 
2.731290e-004 
2.703316e-004 
2.675407e-004 
2.647651e-004 
2.620136e-004 
2.592953e-004 
2.566193e-004 
2.539949e-004 
2.514314e-004 
2.489379e-004 
2.465236e-004 
2.441976e-004 
2.419687e-004 
2.398454e-004 
2.378360e-004 
2.359483e-004 
2.341899e-004 
2.325676e-004 
2.310878e-004 
2.297563e-004 
2.285783e-004 
2.275580e-004 
2.266992e-004 
2.260048e-004 
2.254766e-004 
2.251159e-004 
2.249227e-004 
2.248966e-004 
2.250356e-004 
2.253373e-004 
2.257981e-004 
2.264133e-004 
2.271774e-004 
2.280840e-004 
2.291255e-004 
2.302936e-004 
2.315789e-004 
2.329712e-004 
2.344594e-004 
2.360316e-004 
2.376751e-004 
2.393762e-004 
2.411205e-004 
2.428931e-004 
2.446781e-004 
2.464589e-004 
2.482182e-004 
2.499382e-004 
2.516003e-004 
2.531851e-004 
2.546729e-004 
2.560432e-004 
2.572755e-004 
2.583488e-004 
2.592429e-004 
2.599393e-004 
2.604220e-004 
2.606789e-004 
2.607128e-004 
2.606021e-004 
2.604487e-004 
1.000000e+000 
1.000000e+000 
3.071975e-004 
3.071076e-004 
3.072085e-004 
3.075316e-004 
3.080612e-004 
3.087804e-004 
3.096609e-004 
3.106727e-004 
3.117866e-004 
3.129760e-004 
3.142169e-004 
3.154877e-004 
3.167693e-004 
3.180450e-004 
3.193001e-004 
3.205220e-004 
3.216996e-004 
3.228236e-004 
3.238858e-004 
3.248795e-004 
3.257988e-004 
3.266389e-004 
3.273956e-004 
3.280657e-004 
3.286464e-004 
3.291353e-004 
3.295306e-004 
3.298308e-004 
3.300347e-004 
3.301414e-004 
3.301501e-004 
3.300602e-004 
3.298714e-004 
3.295833e-004 
3.291957e-004 
3.287086e-004 
3.281219e-004 
3.274358e-004 
3.266503e-004 
3.257659e-004 
3.247828e-004 
3.237016e-004 
3.225230e-004 
3.212476e-004 
3.198765e-004 
3.184109e-004 
3.168520e-004 
3.152014e-004 
3.134610e-004 
3.116328e-004 
3.097192e-004 
3.077228e-004 
3.056466e-004 
3.034939e-004 
3.012684e-004 
2.989741e-004 
2.966152e-004 
2.941966e-004 
2.917233e-004 
2.892008e-004 
2.866349e-004 
2.840319e-004 
2.813983e-004 
2.787411e-004 
2.760673e-004 
2.733847e-004 
2.707009e-004 
2.680241e-004 
2.653626e-004 
2.627247e-004 
2.601192e-004 
2.575548e-004 
2.550403e-004 
2.525845e-004 
2.501962e-004 
2.478840e-004 
2.456566e-004 
2.435223e-004 
2.414891e-004 
2.395650e-004 
2.377573e-004 
2.360731e-004 
2.345189e-004 
2.331007e-004 
2.318238e-004 
2.306932e-004 
2.297129e-004 
2.288862e-004 
2.282157e-004 
2.277034e-004 
2.273500e-004 
2.271557e-004 
2.271198e-004 
2.272404e-004 
2.275151e-004 
2.279402e-004 
2.285113e-004 
2.292230e-004 
2.300690e-004 
2.310421e-004 
2.321341e-004 
2.333362e-004 
2.346385e-004 
2.360303e-004 
2.375002e-004 
2.390361e-004 
2.406248e-004 
2.422529e-004 
2.439058e-004 
2.455686e-004 
2.472257e-004 
2.488608e-004 
2.504571e-004 
2.519973e-004 
2.534636e-004 
2.548378e-004 
2.561016e-004 
2.572367e-004 
2.582253e-004 
2.590504e-004 
2.596970e-004 
2.601546e-004 
2.604212e-004 
2.605082e-004 
2.604486e-004 
2.602953e-004 
1.000000e+000 
1.000000e+000 
3.071133e-004 
3.070064e-004 
3.071075e-004 
3.074178e-004 
3.079086e-004 
3.085677e-004 
3.093711e-004 
3.102937e-004 
3.113111e-004 
3.124001e-004 
3.135393e-004 
3.147090e-004 
3.158917e-004 
3.170719e-004 
3.182357e-004 
3.193710e-004 
3.204673e-004 
3.215155e-004 
3.225075e-004 
3.234367e-004 
3.242973e-004 
3.250842e-004 
3.257935e-004 
3.264216e-004 
3.269655e-004 
3.274229e-004 
3.277917e-004 
3.280703e-004 
3.282574e-004 
3.283518e-004 
3.283528e-004 
3.282595e-004 
3.280716e-004 
3.277886e-004 
3.274102e-004 
3.269362e-004 
3.263667e-004 
3.257016e-004 
3.249410e-004 
3.240853e-004 
3.231347e-004 
3.220898e-004 
3.209512e-004 
3.197196e-004 
3.183960e-004 
3.169815e-004 
3.154775e-004 
3.138854e-004 
3.122070e-004 
3.104445e-004 
3.086000e-004 
3.066762e-004 
3.046759e-004 
3.026025e-004 
3.004593e-004 
2.982503e-004 
2.959798e-004 
2.936522e-004 
2.912725e-004 
2.888460e-004 
2.863783e-004 
2.838754e-004 
2.813436e-004 
2.787895e-004 
2.762201e-004 
2.736426e-004 
2.710645e-004 
2.684936e-004 
2.659377e-004 
2.634049e-004 
2.609036e-004 
2.584421e-004 
2.560287e-004 
2.536720e-004 
2.513802e-004 
2.491616e-004 
2.470245e-004 
2.449768e-004 
2.430261e-004 
2.411799e-004 
2.394452e-004 
2.378288e-004 
2.363367e-004 
2.349746e-004 
2.337477e-004 
2.326604e-004 
2.317166e-004 
2.309194e-004 
2.302713e-004 
2.297737e-004 
2.294276e-004 
2.292329e-004 
2.291889e-004 
2.292936e-004 
2.295447e-004 
2.299386e-004 
2.304708e-004 
2.311363e-004 
2.319288e-004 
2.328415e-004 
2.338664e-004 
2.349949e-004 
2.362176e-004 
2.375243e-004 
2.389040e-004 
2.403450e-004 
2.418349e-004 
2.433608e-004 
2.449089e-004 
2.464651e-004 
2.480146e-004 
2.495420e-004 
2.510318e-004 
2.524676e-004 
2.538332e-004 
2.551120e-004 
2.562874e-004 
2.573431e-004 
2.582634e-004 
2.590342e-004 
2.596432e-004 
2.600815e-004 
2.603469e-004 
2.604492e-004 
2.603888e-004 
2.601838e-004 
1.000000e+000 
1.000000e+000 
3.067815e-004 
3.066820e-004 
3.067972e-004 
3.071088e-004 
3.075853e-004 
3.082101e-004 
3.089620e-004 
3.098207e-004 
3.107655e-004 
3.117759e-004 
3.128330e-004 
3.139192e-004 
3.150188e-004 
3.161173e-004 
3.172019e-004 
3.182613e-004 
3.192855e-004 
3.202658e-004 
3.211945e-004 
3.220651e-004 
3.228719e-004 
3.236100e-004 
3.242753e-004 
3.248643e-004 
3.253739e-004 
3.258018e-004 
3.261459e-004 
3.264043e-004 
3.265756e-004 
3.266588e-004 
3.266527e-004 
3.265567e-004 
3.263701e-004 
3.260924e-004 
3.257234e-004 
3.252627e-004 
3.247103e-004 
3.240661e-004 
3.233302e-004 
3.225028e-004 
3.215843e-004 
3.205751e-004 
3.194757e-004 
3.182870e-004 
3.170097e-004 
3.156451e-004 
3.141943e-004 
3.126589e-004 
3.110406e-004 
3.093413e-004 
3.075634e-004 
3.057093e-004 
3.037817e-004 
3.017839e-004 
2.997192e-004 
2.975914e-004 
2.954046e-004 
2.931631e-004 
2.908718e-004 
2.885357e-004 
2.861602e-004 
2.837510e-004 
2.813144e-004 
2.788566e-004 
2.763843e-004 
2.739045e-004 
2.714243e-004 
2.689512e-004 
2.664929e-004 
2.640570e-004 
2.616515e-004 
2.592845e-004 
2.569639e-004 
2.546978e-004 
2.524943e-004 
2.503613e-004 
2.483065e-004 
2.463376e-004 
2.444620e-004 
2.426866e-004 
2.410183e-004 
2.394634e-004 
2.380278e-004 
2.367167e-004 
2.355352e-004 
2.344874e-004 
2.335769e-004 
2.328068e-004 
2.321791e-004 
2.316954e-004 
2.313565e-004 
2.311621e-004 
2.311115e-004 
2.312029e-004 
2.314337e-004 
2.318005e-004 
2.322990e-004 
2.329242e-004 
2.336701e-004 
2.345299e-004 
2.354961e-004 
2.365603e-004 
2.377136e-004 
2.389459e-004 
2.402469e-004 
2.416053e-004 
2.430094e-004 
2.444466e-004 
2.459041e-004 
2.473683e-004 
2.488254e-004 
2.502609e-004 
2.516602e-004 
2.530083e-004 
2.542900e-004 
2.554902e-004 
2.565938e-004 
2.575863e-004 
2.584536e-004 
2.591832e-004 
2.597643e-004 
2.601893e-004 
2.604523e-004 
2.605529e-004 
2.604747e-004 
2.602149e-004 
1.000000e+000 
1.000000e+000 
3.061864e-004 
3.061489e-004 
3.063051e-004 
3.066347e-004 
3.071138e-004 
3.077240e-004 
3.084463e-004 
3.092627e-004 
3.101552e-004 
3.111060e-004 
3.120987e-004 
3.131177e-004 
3.141485e-004 
3.151783e-004 
3.161953e-004 
3.171889e-004 
3.181500e-004 
3.190702e-004 
3.199424e-004 
3.207602e-004 
3.215183e-004 
3.222119e-004 
3.228370e-004 
3.233901e-004 
3.238682e-004 
3.242689e-004 
3.245901e-004 
3.248299e-004 
3.249868e-004 
3.250598e-004 
3.250476e-004 
3.249495e-004 
3.247648e-004 
3.244930e-004 
3.241336e-004 
3.236863e-004 
3.231511e-004 
3.225277e-004 
3.218164e-004 
3.210171e-004 
3.201301e-004 
3.191560e-004 
3.180952e-004 
3.169483e-004 
3.157163e-004 
3.144002e-004 
3.130012e-004 
3.115208e-004 
3.099605e-004 
3.083223e-004 
3.066084e-004 
3.048211e-004 
3.029631e-004 
3.010375e-004 
2.990476e-004 
2.969969e-004 
2.948894e-004 
2.927293e-004 
2.905212e-004 
2.882700e-004 
2.859810e-004 
2.836597e-004 
2.813118e-004 
2.789437e-004 
2.765616e-004 
2.741724e-004 
2.717828e-004 
2.694001e-004 
2.670316e-004 
2.646848e-004 
2.623673e-004 
2.600868e-004 
2.578511e-004 
2.556678e-004 
2.535448e-004 
2.514896e-004 
2.495097e-004 
2.476124e-004 
2.458048e-004 
2.440936e-004 
2.424854e-004 
2.409862e-004 
2.396016e-004 
2.383368e-004 
2.371964e-004 
2.361844e-004 
2.353042e-004 
2.345588e-004 
2.339500e-004 
2.334793e-004 
2.331474e-004 
2.329541e-004 
2.328984e-004 
2.329787e-004 
2.331923e-004 
2.335360e-004 
2.340056e-004 
2.345960e-004 
2.353016e-004 
2.361158e-004 
2.370313e-004 
2.380400e-004 
2.391331e-004 
2.403013e-004 
2.415344e-004 
2.428217e-004 
2.441519e-004 
2.455132e-004 
2.468933e-004 
2.482793e-004 
2.496581e-004 
2.510163e-004 
2.523400e-004 
2.536154e-004 
2.548283e-004 
2.559650e-004 
2.570116e-004 
2.579548e-004 
2.587821e-004 
2.594820e-004 
2.600439e-004 
2.604596e-004 
2.607204e-004 
2.608192e-004 
2.607384e-004 
2.604656e-004 
1.000000e+000 
1.000000e+000 
3.053667e-004 
3.054221e-004 
3.056418e-004 
3.060110e-004 
3.065112e-004 
3.071253e-004 
3.078366e-004 
3.086291e-004 
3.094872e-004 
3.103956e-004 
3.113398e-004 
3.123060e-004 
3.132815e-004 
3.142546e-004 
3.152148e-004 
3.161524e-004 
3.170588e-004 
3.179266e-004 
3.187489e-004 
3.195199e-004 
3.202343e-004 
3.208878e-004 
3.214765e-004 
3.219970e-004 
3.224464e-004 
3.228223e-004 
3.231226e-004 
3.233456e-004 
3.234896e-004 
3.235536e-004 
3.235363e-004 
3.234370e-004 
3.232549e-004 
3.229894e-004 
3.226401e-004 
3.222066e-004 
3.216886e-004 
3.210862e-004 
3.203992e-004 
3.196277e-004 
3.187720e-004 
3.178324e-004 
3.168094e-004 
3.157036e-004 
3.145158e-004 
3.132470e-004 
3.118983e-004 
3.104711e-004 
3.089669e-004 
3.073876e-004 
3.057352e-004 
3.040120e-004 
3.022206e-004 
3.003640e-004 
2.984451e-004 
2.964676e-004 
2.944351e-004 
2.923519e-004 
2.902222e-004 
2.880508e-004 
2.858427e-004 
2.836034e-004 
2.813383e-004 
2.790535e-004 
2.767551e-004 
2.744496e-004 
2.721436e-004 
2.698442e-004 
2.675582e-004 
2.652930e-004 
2.630560e-004 
2.608545e-004 
2.586960e-004 
2.565880e-004 
2.545380e-004 
2.525533e-004 
2.506411e-004 
2.488085e-004 
2.470623e-004 
2.454090e-004 
2.438549e-004 
2.424058e-004 
2.410672e-004 
2.398439e-004 
2.387405e-004 
2.377608e-004 
2.369081e-004 
2.361850e-004 
2.355936e-004 
2.351350e-004 
2.348100e-004 
2.346183e-004 
2.345589e-004 
2.346301e-004 
2.348295e-004 
2.351538e-004 
2.355988e-004 
2.361597e-004 
2.368311e-004 
2.376063e-004 
2.384785e-004 
2.394399e-004 
2.404818e-004 
2.415954e-004 
2.427708e-004 
2.439978e-004 
2.452655e-004 
2.465627e-004 
2.478777e-004 
2.491983e-004 
2.505122e-004 
2.518065e-004 
2.530684e-004 
2.542850e-004 
2.554432e-004 
2.565301e-004 
2.575331e-004 
2.584400e-004 
2.592391e-004 
2.599197e-004 
2.604715e-004 
2.608852e-004 
2.611507e-004 
2.612576e-004 
2.611906e-004 
2.609375e-004 
1.000000e+000 
1.000000e+000 
3.043617e-004 
3.045281e-004 
3.048301e-004 
3.052575e-004 
3.057953e-004 
3.064294e-004 
3.071458e-004 
3.079304e-004 
3.087697e-004 
3.096506e-004 
3.105603e-004 
3.114869e-004 
3.124193e-004 
3.133469e-004 
3.142603e-004 
3.151510e-004 
3.160110e-004 
3.168336e-004 
3.176125e-004 
3.183423e-004 
3.190182e-004 
3.196360e-004 
3.201921e-004 
3.206834e-004 
3.211070e-004 
3.214607e-004 
3.217423e-004 
3.219503e-004 
3.220831e-004 
3.221395e-004 
3.221183e-004 
3.220188e-004 
3.218400e-004 
3.215815e-004 
3.212428e-004 
3.208234e-004 
3.203230e-004 
3.197415e-004 
3.190788e-004 
3.183350e-004 
3.175102e-004 
3.166046e-004 
3.156188e-004 
3.145532e-004 
3.134086e-004 
3.121859e-004 
3.108861e-004 
3.095105e-004 
3.080606e-004 
3.065380e-004 
3.049448e-004 
3.032831e-004 
3.015554e-004 
2.997644e-004 
2.979132e-004 
2.960050e-004 
2.940436e-004 
2.920327e-004 
2.899768e-004 
2.878802e-004 
2.857479e-004 
2.835849e-004 
2.813968e-004 
2.791893e-004 
2.769683e-004 
2.747400e-004 
2.725110e-004 
2.702879e-004 
2.680775e-004 
2.658868e-004 
2.637230e-004 
2.615933e-004 
2.595049e-004 
2.574650e-004 
2.554809e-004 
2.535598e-004 
2.517085e-004 
2.499340e-004 
2.482428e-004 
2.466414e-004 
2.451357e-004 
2.437314e-004 
2.424338e-004 
2.412477e-004 
2.401773e-004 
2.392265e-004 
2.383983e-004 
2.376955e-004 
2.371198e-004 
2.366724e-004 
2.363540e-004 
2.361643e-004 
2.361024e-004 
2.361666e-004 
2.363543e-004 
2.366625e-004 
2.370871e-004 
2.376234e-004 
2.382660e-004 
2.390086e-004 
2.398445e-004 
2.407661e-004 
2.417652e-004 
2.428330e-004 
2.439602e-004 
2.451369e-004 
2.463528e-004 
2.475971e-004 
2.488585e-004 
2.501257e-004 
2.513868e-004 
2.526298e-004 
2.538427e-004 
2.550132e-004 
2.561294e-004 
2.571792e-004 
2.581509e-004 
2.590332e-004 
2.598152e-004 
2.604865e-004 
2.610373e-004 
2.614577e-004 
2.617376e-004 
2.618663e-004 
2.618298e-004 
2.616182e-004 
1.000000e+000 
1.000000e+000 
3.032056e-004 
3.034948e-004 
3.038935e-004 
3.043934e-004 
3.049832e-004 
3.056516e-004 
3.063870e-004 
3.071775e-004 
3.080116e-004 
3.088781e-004 
3.097659e-004 
3.106648e-004 
3.115649e-004 
3.124571e-004 
3.133332e-004 
3.141853e-004 
3.150067e-004 
3.157910e-004 
3.165327e-004 
3.172269e-004 
3.178692e-004 
3.184558e-004 
3.189832e-004 
3.194486e-004 
3.198495e-004 
3.201835e-004 
3.204489e-004 
3.206439e-004 
3.207671e-004 
3.208174e-004 
3.207936e-004 
3.206949e-004 
3.205206e-004 
3.202698e-004 
3.199422e-004 
3.195373e-004 
3.190548e-004 
3.184945e-004 
3.178562e-004 
3.171399e-004 
3.163457e-004 
3.154738e-004 
3.145246e-004 
3.134985e-004 
3.123962e-004 
3.112184e-004 
3.099661e-004 
3.086406e-004 
3.072431e-004 
3.057753e-004 
3.042389e-004 
3.026362e-004 
3.009693e-004 
2.992409e-004 
2.974540e-004 
2.956115e-004 
2.937171e-004 
2.917745e-004 
2.897878e-004 
2.877613e-004 
2.856996e-004 
2.836078e-004 
2.814911e-004 
2.793551e-004 
2.772054e-004 
2.750482e-004 
2.728897e-004 
2.707364e-004 
2.685949e-004 
2.664720e-004 
2.643746e-004 
2.623098e-004 
2.602846e-004 
2.583060e-004 
2.563810e-004 
2.545167e-004 
2.527198e-004 
2.509971e-004 
2.493549e-004 
2.477994e-004 
2.463367e-004 
2.449721e-004 
2.437108e-004 
2.425574e-004 
2.415163e-004 
2.405910e-004 
2.397847e-004 
2.390998e-004 
2.385382e-004 
2.381011e-004 
2.377890e-004 
2.376017e-004 
2.375382e-004 
2.375969e-004 
2.377754e-004 
2.380705e-004 
2.384784e-004 
2.389945e-004 
2.396135e-004 
2.403293e-004 
2.411353e-004 
2.420242e-004 
2.429881e-004 
2.440185e-004 
2.451064e-004 
2.462422e-004 
2.474161e-004 
2.486178e-004 
2.498364e-004 
2.510612e-004 
2.522810e-004 
2.534843e-004 
2.546599e-004 
2.557963e-004 
2.568823e-004 
2.579066e-004 
2.588583e-004 
2.597269e-004 
2.605021e-004 
2.611741e-004 
2.617333e-004 
2.621702e-004 
2.624749e-004 
2.626377e-004 
2.626465e-004 
2.624925e-004 
1.000000e+000 
1.000000e+000 
3.019294e-004 
3.023502e-004 
3.028554e-004 
3.034389e-004 
3.040923e-004 
3.048070e-004 
3.055734e-004 
3.063817e-004 
3.072224e-004 
3.080859e-004 
3.089628e-004 
3.098444e-004 
3.107222e-004 
3.115883e-004 
3.124355e-004 
3.132571e-004 
3.140470e-004 
3.147996e-004 
3.155101e-004 
3.161740e-004 
3.167875e-004 
3.173471e-004 
3.178497e-004 
3.182927e-004 
3.186738e-004 
3.189910e-004 
3.192424e-004 
3.194266e-004 
3.195421e-004 
3.195879e-004 
3.195630e-004 
3.194663e-004 
3.192973e-004 
3.190552e-004 
3.187395e-004 
3.183497e-004 
3.178855e-004 
3.173466e-004 
3.167327e-004 
3.160439e-004 
3.152802e-004 
3.144416e-004 
3.135285e-004 
3.125411e-004 
3.114802e-004 
3.103463e-004 
3.091403e-004 
3.078633e-004 
3.065165e-004 
3.051015e-004 
3.036199e-004 
3.020736e-004 
3.004649e-004 
2.987962e-004 
2.970703e-004 
2.952901e-004 
2.934590e-004 
2.915806e-004 
2.896588e-004 
2.876977e-004 
2.857019e-004 
2.836762e-004 
2.816256e-004 
2.795555e-004 
2.774714e-004 
2.753793e-004 
2.732852e-004 
2.711954e-004 
2.691164e-004 
2.670548e-004 
2.650173e-004 
2.630108e-004 
2.610421e-004 
2.591182e-004 
2.572459e-004 
2.554321e-004 
2.536834e-004 
2.520063e-004 
2.504072e-004 
2.488922e-004 
2.474670e-004 
2.461371e-004 
2.449075e-004 
2.437828e-004 
2.427672e-004 
2.418642e-004 
2.410769e-004 
2.404077e-004 
2.398585e-004 
2.394305e-004 
2.391242e-004 
2.389393e-004 
2.388750e-004 
2.389297e-004 
2.391009e-004 
2.393858e-004 
2.397804e-004 
2.402802e-004 
2.408803e-004 
2.415745e-004 
2.423566e-004 
2.432194e-004 
2.441552e-004 
2.451559e-004 
2.462126e-004 
2.473163e-004 
2.484575e-004 
2.496261e-004 
2.508119e-004 
2.520046e-004 
2.531936e-004 
2.543681e-004 
2.555173e-004 
2.566305e-004 
2.576971e-004 
2.587066e-004 
2.596489e-004 
2.605140e-004 
2.612922e-004 
2.619744e-004 
2.625514e-004 
2.630142e-004 
2.633539e-004 
2.635617e-004 
2.636276e-004 
2.635441e-004 
1.000000e+000 
1.000000e+000 
3.005620e-004 
3.011196e-004 
3.017383e-004 
3.024138e-004 
3.031403e-004 
3.039110e-004 
3.047184e-004 
3.055547e-004 
3.064120e-004 
3.072824e-004 
3.081582e-004 
3.090317e-004 
3.098961e-004 
3.107444e-004 
3.115706e-004 
3.123688e-004 
3.131338e-004 
3.138610e-004 
3.145458e-004 
3.151846e-004 
3.157740e-004 
3.163108e-004 
3.167924e-004 
3.172165e-004 
3.175809e-004 
3.178839e-004 
3.181238e-004 
3.182993e-004 
3.184091e-004 
3.184521e-004 
3.184275e-004 
3.183342e-004 
3.181717e-004 
3.179392e-004 
3.176362e-004 
3.172621e-004 
3.168167e-004 
3.162995e-004 
3.157104e-004 
3.150492e-004 
3.143157e-004 
3.135102e-004 
3.126327e-004 
3.116835e-004 
3.106631e-004 
3.095721e-004 
3.084112e-004 
3.071814e-004 
3.058837e-004 
3.045196e-004 
3.030907e-004 
3.015986e-004 
3.000454e-004 
2.984336e-004 
2.967656e-004 
2.950443e-004 
2.932729e-004 
2.914549e-004 
2.895938e-004 
2.876939e-004 
2.857593e-004 
2.837948e-004 
2.818052e-004 
2.797957e-004 
2.777717e-004 
2.757390e-004 
2.737035e-004 
2.716713e-004 
2.696486e-004 
2.676420e-004 
2.656581e-004 
2.637036e-004 
2.617852e-004 
2.599096e-004 
2.580838e-004 
2.563142e-004 
2.546076e-004 
2.529704e-004 
2.514087e-004 
2.499287e-004 
2.485359e-004 
2.472358e-004 
2.460334e-004 
2.449332e-004 
2.439393e-004 
2.430553e-004 
2.422842e-004 
2.416285e-004 
2.410900e-004 
2.406698e-004 
2.403686e-004 
2.401861e-004 
2.401215e-004 
2.401732e-004 
2.403390e-004 
2.406159e-004 
2.410002e-004 
2.414875e-004 
2.420728e-004 
2.427503e-004 
2.435139e-004 
2.443566e-004 
2.452709e-004 
2.462489e-004 
2.472821e-004 
2.483617e-004 
2.494785e-004 
2.506230e-004 
2.517853e-004 
2.529555e-004 
2.541235e-004 
2.552790e-004 
2.564119e-004 
2.575121e-004 
2.585694e-004 
2.595742e-004 
2.605167e-004 
2.613878e-004 
2.621784e-004 
2.628797e-004 
2.634834e-004 
2.639812e-004 
2.643650e-004 
2.646271e-004 
2.647594e-004 
2.647559e-004 
1.000000e+000 
1.000000e+000 
2.991295e-004 
2.998268e-004 
3.005637e-004 
3.013374e-004 
3.021441e-004 
3.029786e-004 
3.038353e-004 
3.047082e-004 
3.055908e-004 
3.064767e-004 
3.073596e-004 
3.082333e-004 
3.090920e-004 
3.099300e-004 
3.107422e-004 
3.115237e-004 
3.122701e-004 
3.129775e-004 
3.136420e-004 
3.142606e-004 
3.148302e-004 
3.153484e-004 
3.158127e-004 
3.162211e-004 
3.165719e-004 
3.168635e-004 
3.170945e-004 
3.172635e-004 
3.173696e-004 
3.174117e-004 
3.173889e-004 
3.173004e-004 
3.171456e-004 
3.169237e-004 
3.166343e-004 
3.162768e-004 
3.158508e-004 
3.153558e-004 
3.147916e-004 
3.141581e-004 
3.134549e-004 
3.126822e-004 
3.118400e-004 
3.109285e-004 
3.099480e-004 
3.088989e-004 
3.077820e-004 
3.065980e-004 
3.053480e-004 
3.040331e-004 
3.026547e-004 
3.012146e-004 
2.997146e-004 
2.981569e-004 
2.965440e-004 
2.948784e-004 
2.931633e-004 
2.914018e-004 
2.895976e-004 
2.877546e-004 
2.858768e-004 
2.839688e-004 
2.820354e-004 
2.800814e-004 
2.781123e-004 
2.761336e-004 
2.741509e-004 
2.721705e-004 
2.701983e-004 
2.682408e-004 
2.663044e-004 
2.643958e-004 
2.625215e-004 
2.606883e-004 
2.589028e-004 
2.571716e-004 
2.555013e-004 
2.538981e-004 
2.523684e-004 
2.509180e-004 
2.495527e-004 
2.482776e-004 
2.470980e-004 
2.460182e-004 
2.450423e-004 
2.441740e-004 
2.434162e-004 
2.427715e-004 
2.422417e-004 
2.418280e-004 
2.415310e-004 
2.413506e-004 
2.412860e-004 
2.413356e-004 
2.414974e-004 
2.417683e-004 
2.421448e-004 
2.426227e-004 
2.431971e-004 
2.438623e-004 
2.446123e-004 
2.454403e-004 
2.463391e-004 
2.473009e-004 
2.483176e-004 
2.493806e-004 
2.504810e-004 
2.516095e-004 
2.527569e-004 
2.539134e-004 
2.550695e-004 
2.562153e-004 
2.573413e-004 
2.584377e-004 
2.594951e-004 
2.605043e-004 
2.614562e-004 
2.623422e-004 
2.631537e-004 
2.638826e-004 
2.645213e-004 
2.650621e-004 
2.654980e-004 
2.658222e-004 
2.660284e-004 
2.661116e-004 
1.000000e+000 
1.000000e+000 
2.976553e-004 
2.984935e-004 
2.993516e-004 
3.002279e-004 
3.011201e-004 
3.020247e-004 
3.029375e-004 
3.038539e-004 
3.047690e-004 
3.056778e-004 
3.065751e-004 
3.074561e-004 
3.083161e-004 
3.091505e-004 
3.099550e-004 
3.107259e-004 
3.114594e-004 
3.121522e-004 
3.128014e-004 
3.134043e-004 
3.139585e-004 
3.144619e-004 
3.149125e-004 
3.153087e-004 
3.156489e-004 
3.159319e-004 
3.161563e-004 
3.163212e-004 
3.164256e-004 
3.164686e-004 
3.164493e-004 
3.163672e-004 
3.162214e-004 
3.160113e-004 
3.157365e-004 
3.153963e-004 
3.149903e-004 
3.145181e-004 
3.139793e-004 
3.133737e-004 
3.127009e-004 
3.119609e-004 
3.111537e-004 
3.102794e-004 
3.093381e-004 
3.083302e-004 
3.072563e-004 
3.061169e-004 
3.049131e-004 
3.036457e-004 
3.023162e-004 
3.009259e-004 
2.994768e-004 
2.979707e-004 
2.964099e-004 
2.947970e-004 
2.931349e-004 
2.914265e-004 
2.896754e-004 
2.878853e-004 
2.860601e-004 
2.842042e-004 
2.823222e-004 
2.804189e-004 
2.784996e-004 
2.765695e-004 
2.746344e-004 
2.727002e-004 
2.707729e-004 
2.688587e-004 
2.669641e-004 
2.650954e-004 
2.632594e-004 
2.614626e-004 
2.597116e-004 
2.580130e-004 
2.563732e-004 
2.547987e-004 
2.532954e-004 
2.518695e-004 
2.505266e-004 
2.492719e-004 
2.481105e-004 
2.470470e-004 
2.460855e-004 
2.452295e-004 
2.444821e-004 
2.438459e-004 
2.433228e-004 
2.429140e-004 
2.426201e-004 
2.424412e-004 
2.423765e-004 
2.424246e-004 
2.425833e-004 
2.428500e-004 
2.432210e-004 
2.436922e-004 
2.442589e-004 
2.449157e-004 
2.456565e-004 
2.464748e-004 
2.473635e-004 
2.483152e-004 
2.493217e-004 
2.503749e-004 
2.514661e-004 
2.525863e-004 
2.537266e-004 
2.548777e-004 
2.560302e-004 
2.571749e-004 
2.583026e-004 
2.594040e-004 
2.604702e-004 
2.614924e-004 
2.624621e-004 
2.633711e-004 
2.642115e-004 
2.649759e-004 
2.656570e-004 
2.662481e-004 
2.667430e-004 
2.671358e-004 
2.674215e-004 
2.675961e-004 
1.000000e+000 
1.000000e+000 
2.961604e-004 
2.971396e-004 
2.981206e-004 
2.991025e-004 
3.000844e-004 
3.010638e-004 
3.020381e-004 
3.030038e-004 
3.039574e-004 
3.048952e-004 
3.058132e-004 
3.067077e-004 
3.075750e-004 
3.084117e-004 
3.092143e-004 
3.099799e-004 
3.107056e-004 
3.113889e-004 
3.120274e-004 
3.126190e-004 
3.131618e-004 
3.136542e-004 
3.140946e-004 
3.144817e-004 
3.148143e-004 
3.150913e-004 
3.153118e-004 
3.154749e-004 
3.155797e-004 
3.156255e-004 
3.156115e-004 
3.155372e-004 
3.154018e-004 
3.152049e-004 
3.149457e-004 
3.146238e-004 
3.142386e-004 
3.137898e-004 
3.132768e-004 
3.126994e-004 
3.120571e-004 
3.113499e-004 
3.105775e-004 
3.097400e-004 
3.088374e-004 
3.078700e-004 
3.068381e-004 
3.057423e-004 
3.045833e-004 
3.033620e-004 
3.020795e-004 
3.007372e-004 
2.993367e-004 
2.978797e-004 
2.963685e-004 
2.948054e-004 
2.931931e-004 
2.915345e-004 
2.898329e-004 
2.880918e-004 
2.863152e-004 
2.845071e-004 
2.826721e-004 
2.808149e-004 
2.789404e-004 
2.770540e-004 
2.751613e-004 
2.732680e-004 
2.713800e-004 
2.695036e-004 
2.676451e-004 
2.658108e-004 
2.640073e-004 
2.622412e-004 
2.605190e-004 
2.588473e-004 
2.572326e-004 
2.556811e-004 
2.541991e-004 
2.527926e-004 
2.514671e-004 
2.502281e-004 
2.490806e-004 
2.480292e-004 
2.470782e-004 
2.462310e-004 
2.454910e-004 
2.448606e-004 
2.443419e-004 
2.439362e-004 
2.436442e-004 
2.434660e-004 
2.434009e-004 
2.434477e-004 
2.436041e-004 
2.438677e-004 
2.442350e-004 
2.447020e-004 
2.452640e-004 
2.459156e-004 
2.466512e-004 
2.474642e-004 
2.483478e-004 
2.492947e-004 
2.502969e-004 
2.513466e-004 
2.524352e-004 
2.535542e-004 
2.546947e-004 
2.558478e-004 
2.570046e-004 
2.581561e-004 
2.592934e-004 
2.604079e-004 
2.614908e-004 
2.625340e-004 
2.635293e-004 
2.644690e-004 
2.653458e-004 
2.661526e-004 
2.668830e-004 
2.675308e-004 
2.680904e-004 
2.685571e-004 
2.689265e-004 
2.691959e-004 
1.000000e+000 
1.000000e+000 
2.946643e-004 
2.957838e-004 
2.968882e-004 
2.979777e-004 
2.990519e-004 
3.001098e-004 
3.011497e-004 
3.021695e-004 
3.031666e-004 
3.041385e-004 
3.050825e-004 
3.059958e-004 
3.068758e-004 
3.077199e-004 
3.085257e-004 
3.092910e-004 
3.100137e-004 
3.106919e-004 
3.113239e-004 
3.119082e-004 
3.124435e-004 
3.129284e-004 
3.133620e-004 
3.137432e-004 
3.140711e-004 
3.143449e-004 
3.145640e-004 
3.147275e-004 
3.148348e-004 
3.148854e-004 
3.148785e-004 
3.148137e-004 
3.146902e-004 
3.145076e-004 
3.142653e-004 
3.139626e-004 
3.135992e-004 
3.131744e-004 
3.126878e-004 
3.121390e-004 
3.115275e-004 
3.108531e-004 
3.101155e-004 
3.093146e-004 
3.084503e-004 
3.075227e-004 
3.065321e-004 
3.054788e-004 
3.043635e-004 
3.031868e-004 
3.019497e-004 
3.006535e-004 
2.992996e-004 
2.978896e-004 
2.964254e-004 
2.949094e-004 
2.933439e-004 
2.917319e-004 
2.900763e-004 
2.883807e-004 
2.866488e-004 
2.848845e-004 
2.830921e-004 
2.812764e-004 
2.794422e-004 
2.775947e-004 
2.757393e-004 
2.738818e-004 
2.720280e-004 
2.701840e-004 
2.683560e-004 
2.665506e-004 
2.647741e-004 
2.630331e-004 
2.613342e-004 
2.596839e-004 
2.580887e-004 
2.565550e-004 
2.550890e-004 
2.536966e-004 
2.523837e-004 
2.511557e-004 
2.500176e-004 
2.489742e-004 
2.480297e-004 
2.471879e-004 
2.464520e-004 
2.458246e-004 
2.453079e-004 
2.449033e-004 
2.446116e-004 
2.444330e-004 
2.443669e-004 
2.444121e-004 
2.445667e-004 
2.448282e-004 
2.451931e-004 
2.456577e-004 
2.462174e-004 
2.468670e-004 
2.476007e-004 
2.484124e-004 
2.492953e-004 
2.502422e-004 
2.512455e-004 
2.522973e-004 
2.533895e-004 
2.545136e-004 
2.556610e-004 
2.568232e-004 
2.579914e-004 
2.591570e-004 
2.603115e-004 
2.614464e-004 
2.625536e-004 
2.636250e-004 
2.646532e-004 
2.656306e-004 
2.665505e-004 
2.674063e-004 
2.681919e-004 
2.689019e-004 
2.695314e-004 
2.700761e-004 
2.705327e-004 
2.708988e-004 
1.000000e+000 
1.000000e+000 
2.931844e-004 
2.944429e-004 
2.956708e-004 
2.968687e-004 
2.980372e-004 
2.991762e-004 
3.002850e-004 
3.013624e-004 
3.024071e-004 
3.034175e-004 