# vtk DataFile Version 2.0
2D-ADE data file 
ASCII
DATASET RECTILINEAR_GRID
DIMENSIONS 128 128 1
X_COORDINATES 128 int
0 1 2 3 4 5 6 7 8 9 10 11 12 13 14 15 16 17 18 19 20 21 22 23 24 25 26 27 28 29 30 31 32 33 34 35 36 37 38 39 40 41 42 43 44 45 46 47 48 49 50 51 52 53 54 55 56 57 58 59 60 61 62 63 64 65 66 67 68 69 70 71 72 73 74 75 76 77 78 79 80 81 82 83 84 85 86 87 88 89 90 91 92 93 94 95 96 97 98 99 100 101 102 103 104 105 106 107 108 109 110 111 112 113 114 115 116 117 118 119 120 121 122 123 124 125 126 127 
Y_COORDINATES 128 int
0 1 2 3 4 5 6 7 8 9 10 11 12 13 14 15 16 17 18 19 20 21 22 23 24 25 26 27 28 29 30 31 32 33 34 35 36 37 38 39 40 41 42 43 44 45 46 47 48 49 50 51 52 53 54 55 56 57 58 59 60 61 62 63 64 65 66 67 68 69 70 71 72 73 74 75 76 77 78 79 80 81 82 83 84 85 86 87 88 89 90 91 92 93 94 95 96 97 98 99 100 101 102 103 104 105 106 107 108 109 110 111 112 113 114 115 116 117 118 119 120 121 122 123 124 125 126 127 
Z_COORDINATES 1 int
0
POINT_DATA 16384 
SCALARS density double 1
LOOKUP_TABLE default
1.000000e+000 
1.000000e+000 
1.000000e+000 
1.000000e+000 
1.000000e+000 
1.000000e+000 
1.000000e+000 
1.000000e+000 
1.000000e+000 
1.000000e+000 
1.000000e+000 
1.000000e+000 
1.000000e+000 
1.000000e+000 
1.000000e+000 
1.000000e+000 
1.000000e+000 
1.000000e+000 
1.000000e+000 
1.000000e+000 
1.000000e+000 
1.000000e+000 
1.000000e+000 
1.000000e+000 
1.000000e+000 
1.000000e+000 
1.000000e+000 
1.000000e+000 
1.000000e+000 
1.000000e+000 
1.000000e+000 
1.000000e+000 
1.000000e+000 
1.000000e+000 
1.000000e+000 
1.000000e+000 
1.000000e+000 
1.000000e+000 
1.000000e+000 
1.000000e+000 
1.000000e+000 
1.000000e+000 
1.000000e+000 
1.000000e+000 
1.000000e+000 
1.000000e+000 
1.000000e+000 
1.000000e+000 
1.000000e+000 
1.000000e+000 
1.000000e+000 
1.000000e+000 
1.000000e+000 
1.000000e+000 
1.000000e+000 
1.000000e+000 
1.000000e+000 
1.000000e+000 
1.000000e+000 
1.000000e+000 
1.000000e+000 
1.000000e+000 
1.000000e+000 
1.000000e+000 
1.000000e+000 
1.000000e+000 
1.000000e+000 
1.000000e+000 
1.000000e+000 
1.000000e+000 
1.000000e+000 
1.000000e+000 
1.000000e+000 
1.000000e+000 
1.000000e+000 
1.000000e+000 
1.000000e+000 
1.000000e+000 
1.000000e+000 
1.000000e+000 
1.000000e+000 
1.000000e+000 
1.000000e+000 
1.000000e+000 
1.000000e+000 
1.000000e+000 
1.000000e+000 
1.000000e+000 
1.000000e+000 
1.000000e+000 
1.000000e+000 
1.000000e+000 
1.000000e+000 
1.000000e+000 
1.000000e+000 
1.000000e+000 
1.000000e+000 
1.000000e+000 
1.000000e+000 
1.000000e+000 
1.000000e+000 
1.000000e+000 
1.000000e+000 
1.000000e+000 
1.000000e+000 
1.000000e+000 
1.000000e+000 
1.000000e+000 
1.000000e+000 
1.000000e+000 
1.000000e+000 
1.000000e+000 
1.000000e+000 
1.000000e+000 
1.000000e+000 
1.000000e+000 
1.000000e+000 
1.000000e+000 
1.000000e+000 
1.000000e+000 
1.000000e+000 
1.000000e+000 
1.000000e+000 
1.000000e+000 
1.000000e+000 
1.000000e+000 
1.000000e+000 
1.000000e+000 
1.000000e+000 
3.071092e-004 
3.070194e-004 
3.071037e-004 
3.074344e-004 
3.080257e-004 
3.088362e-004 
3.098241e-004 
3.109529e-004 
3.121893e-004 
3.135029e-004 
3.148667e-004 
3.162574e-004 
3.176544e-004 
3.190400e-004 
3.203990e-004 
3.217182e-004 
3.229865e-004 
3.241942e-004 
3.253334e-004 
3.263973e-004 
3.273802e-004 
3.282774e-004 
3.290851e-004 
3.298000e-004 
3.304196e-004 
3.309419e-004 
3.313652e-004 
3.316882e-004 
3.319099e-004 
3.320295e-004 
3.320465e-004 
3.319604e-004 
3.317709e-004 
3.314779e-004 
3.310813e-004 
3.305810e-004 
3.299770e-004 
3.292697e-004 
3.284590e-004 
3.275454e-004 
3.265293e-004 
3.254112e-004 
3.241917e-004 
3.228716e-004 
3.214519e-004 
3.199337e-004 
3.183184e-004 
3.166075e-004 
3.148029e-004 
3.129067e-004 
3.109213e-004 
3.088494e-004 
3.066940e-004 
3.044585e-004 
3.021467e-004 
2.997626e-004 
2.973107e-004 
2.947960e-004 
2.922237e-004 
2.895994e-004 
2.869293e-004 
2.842197e-004 
2.814775e-004 
2.787099e-004 
2.759244e-004 
2.731289e-004 
2.703315e-004 
2.675407e-004 
2.647651e-004 
2.620137e-004 
2.592954e-004 
2.566194e-004 
2.539951e-004 
2.514315e-004 
2.489381e-004 
2.465238e-004 
2.441978e-004 
2.419689e-004 
2.398456e-004 
2.378362e-004 
2.359486e-004 
2.341902e-004 
2.325679e-004 
2.310881e-004 
2.297566e-004 
2.285785e-004 
2.275582e-004 
2.266994e-004 
2.260049e-004 
2.254767e-004 
2.251159e-004 
2.249228e-004 
2.248965e-004 
2.250355e-004 
2.253372e-004 
2.257979e-004 
2.264130e-004 
2.271771e-004 
2.280835e-004 
2.291250e-004 
2.302930e-004 
2.315782e-004 
2.329704e-004 
2.344586e-004 
2.360307e-004 
2.376741e-004 
2.393751e-004 
2.411194e-004 
2.428919e-004 
2.446768e-004 
2.464575e-004 
2.482168e-004 
2.499367e-004 
2.515987e-004 
2.531834e-004 
2.546712e-004 
2.560415e-004 
2.572738e-004 
2.583470e-004 
2.592410e-004 
2.599375e-004 
2.604202e-004 
2.606771e-004 
2.607110e-004 
2.606003e-004 
2.604469e-004 
1.000000e+000 
1.000000e+000 
3.071992e-004 
3.071092e-004 
3.072102e-004 
3.075333e-004 
3.080629e-004 
3.087820e-004 
3.096625e-004 
3.106742e-004 
3.117881e-004 
3.129775e-004 
3.142183e-004 
3.154890e-004 
3.167706e-004 
3.180462e-004 
3.193013e-004 
3.205231e-004 
3.217006e-004 
3.228245e-004 
3.238867e-004 
3.248803e-004 
3.257995e-004 
3.266395e-004 
3.273962e-004 
3.280663e-004 
3.286469e-004 
3.291357e-004 
3.295310e-004 
3.298311e-004 
3.300350e-004 
3.301416e-004 
3.301502e-004 
3.300603e-004 
3.298714e-004 
3.295833e-004 
3.291957e-004 
3.287085e-004 
3.281218e-004 
3.274356e-004 
3.266502e-004 
3.257657e-004 
3.247826e-004 
3.237014e-004 
3.225227e-004 
3.212473e-004 
3.198762e-004 
3.184105e-004 
3.168516e-004 
3.152010e-004 
3.134606e-004 
3.116324e-004 
3.097188e-004 
3.077224e-004 
3.056462e-004 
3.034936e-004 
3.012681e-004 
2.989737e-004 
2.966149e-004 
2.941962e-004 
2.917230e-004 
2.892005e-004 
2.866347e-004 
2.840317e-004 
2.813981e-004 
2.787409e-004 
2.760672e-004 
2.733846e-004 
2.707009e-004 
2.680241e-004 
2.653626e-004 
2.627247e-004 
2.601193e-004 
2.575549e-004 
2.550404e-004 
2.525846e-004 
2.501963e-004 
2.478842e-004 
2.456568e-004 
2.435224e-004 
2.414893e-004 
2.395652e-004 
2.377575e-004 
2.360733e-004 
2.345191e-004 
2.331008e-004 
2.318240e-004 
2.306934e-004 
2.297130e-004 
2.288863e-004 
2.282158e-004 
2.277034e-004 
2.273500e-004 
2.271557e-004 
2.271197e-004 
2.272403e-004 
2.275149e-004 
2.279399e-004 
2.285109e-004 
2.292226e-004 
2.300685e-004 
2.310415e-004 
2.321335e-004 
2.333355e-004 
2.346377e-004 
2.360294e-004 
2.374993e-004 
2.390350e-004 
2.406237e-004 
2.422517e-004 
2.439045e-004 
2.455673e-004 
2.472243e-004 
2.488594e-004 
2.504556e-004 
2.519957e-004 
2.534619e-004 
2.548361e-004 
2.560999e-004 
2.572350e-004 
2.582235e-004 
2.590486e-004 
2.596952e-004 
2.601528e-004 
2.604194e-004 
2.605064e-004 
2.604468e-004 
2.602935e-004 
1.000000e+000 
1.000000e+000 
3.071149e-004 
3.070080e-004 
3.071092e-004 
3.074194e-004 
3.079102e-004 
3.085693e-004 
3.093727e-004 
3.102953e-004 
3.113126e-004 
3.124016e-004 
3.135407e-004 
3.147103e-004 
3.158930e-004 
3.170731e-004 
3.182369e-004 
3.193721e-004 
3.204684e-004 
3.215164e-004 
3.225084e-004 
3.234376e-004 
3.242981e-004 
3.250850e-004 
3.257942e-004 
3.264222e-004 
3.269660e-004 
3.274233e-004 
3.277921e-004 
3.280707e-004 
3.282577e-004 
3.283521e-004 
3.283530e-004 
3.282597e-004 
3.280717e-004 
3.277886e-004 
3.274102e-004 
3.269362e-004 
3.263666e-004 
3.257015e-004 
3.249409e-004 
3.240851e-004 
3.231346e-004 
3.220896e-004 
3.209510e-004 
3.197194e-004 
3.183957e-004 
3.169812e-004 
3.154772e-004 
3.138850e-004 
3.122067e-004 
3.104441e-004 
3.085996e-004 
3.066758e-004 
3.046756e-004 
3.026021e-004 
3.004590e-004 
2.982500e-004 
2.959795e-004 
2.936519e-004 
2.912722e-004 
2.888457e-004 
2.863781e-004 
2.838752e-004 
2.813434e-004 
2.787894e-004 
2.762200e-004 
2.736425e-004 
2.710645e-004 
2.684935e-004 
2.659376e-004 
2.634049e-004 
2.609036e-004 
2.584421e-004 
2.560288e-004 
2.536720e-004 
2.513803e-004 
2.491617e-004 
2.470246e-004 
2.449769e-004 
2.430262e-004 
2.411800e-004 
2.394454e-004 
2.378289e-004 
2.363368e-004 
2.349747e-004 
2.337478e-004 
2.326605e-004 
2.317167e-004 
2.309195e-004 
2.302712e-004 
2.297737e-004 
2.294275e-004 
2.292328e-004 
2.291887e-004 
2.292934e-004 
2.295444e-004 
2.299382e-004 
2.304704e-004 
2.311358e-004 
2.319283e-004 
2.328408e-004 
2.338657e-004 
2.349941e-004 
2.362168e-004 
2.375234e-004 
2.389030e-004 
2.403439e-004 
2.418338e-004 
2.433596e-004 
2.449077e-004 
2.464638e-004 
2.480132e-004 
2.495406e-004 
2.510302e-004 
2.524660e-004 
2.538316e-004 
2.551104e-004 
2.562857e-004 
2.573414e-004 
2.582617e-004 
2.590325e-004 
2.596414e-004 
2.600797e-004 
2.603451e-004 
2.604474e-004 
2.603870e-004 
2.601820e-004 
1.000000e+000 
1.000000e+000 
3.067832e-004 
3.066837e-004 
3.067989e-004 
3.071104e-004 
3.075869e-004 
3.082117e-004 
3.089636e-004 
3.098223e-004 
3.107670e-004 
3.117774e-004 
3.128344e-004 
3.139206e-004 
3.150201e-004 
3.161186e-004 
3.172031e-004 
3.182625e-004 
3.192866e-004 
3.202668e-004 
3.211955e-004 
3.220660e-004 
3.228727e-004 
3.236108e-004 
3.242760e-004 
3.248649e-004 
3.253745e-004 
3.258024e-004 
3.261464e-004 
3.264047e-004 
3.265760e-004 
3.266591e-004 
3.266530e-004 
3.265569e-004 
3.263703e-004 
3.260926e-004 
3.257235e-004 
3.252628e-004 
3.247103e-004 
3.240661e-004 
3.233301e-004 
3.225028e-004 
3.215842e-004 
3.205749e-004 
3.194755e-004 
3.182868e-004 
3.170095e-004 
3.156448e-004 
3.141940e-004 
3.126586e-004 
3.110403e-004 
3.093410e-004 
3.075631e-004 
3.057089e-004 
3.037814e-004 
3.017836e-004 
2.997189e-004 
2.975911e-004 
2.954043e-004 
2.931629e-004 
2.908715e-004 
2.885354e-004 
2.861599e-004 
2.837508e-004 
2.813142e-004 
2.788564e-004 
2.763841e-004 
2.739043e-004 
2.714242e-004 
2.689511e-004 
2.664928e-004 
2.640569e-004 
2.616515e-004 
2.592845e-004 
2.569639e-004 
2.546979e-004 
2.524944e-004 
2.503613e-004 
2.483066e-004 
2.463377e-004 
2.444620e-004 
2.426867e-004 
2.410184e-004 
2.394635e-004 
2.380278e-004 
2.367168e-004 
2.355352e-004 
2.344874e-004 
2.335769e-004 
2.328067e-004 
2.321790e-004 
2.316953e-004 
2.313563e-004 
2.311619e-004 
2.311113e-004 
2.312026e-004 
2.314333e-004 
2.318001e-004 
2.322986e-004 
2.329237e-004 
2.336695e-004 
2.345292e-004 
2.354953e-004 
2.365595e-004 
2.377127e-004 
2.389450e-004 
2.402459e-004 
2.416042e-004 
2.430082e-004 
2.444454e-004 
2.459028e-004 
2.473670e-004 
2.488240e-004 
2.502595e-004 
2.516587e-004 
2.530067e-004 
2.542884e-004 
2.554885e-004 
2.565921e-004 
2.575845e-004 
2.584519e-004 
2.591814e-004 
2.597625e-004 
2.601875e-004 
2.604505e-004 
2.605511e-004 
2.604729e-004 
2.602131e-004 
1.000000e+000 
1.000000e+000 
3.061881e-004 
3.061506e-004 
3.063068e-004 
3.066364e-004 
3.071155e-004 
3.077256e-004 
3.084479e-004 
3.092643e-004 
3.101567e-004 
3.111076e-004 
3.121002e-004 
3.131191e-004 
3.141499e-004 
3.151796e-004 
3.161965e-004 
3.171901e-004 
3.181511e-004 
3.190713e-004 
3.199434e-004 
3.207612e-004 
3.215192e-004 
3.222128e-004 
3.228378e-004 
3.233908e-004 
3.238689e-004 
3.242695e-004 
3.245906e-004 
3.248304e-004 
3.249873e-004 
3.250601e-004 
3.250479e-004 
3.249498e-004 
3.247650e-004 
3.244932e-004 
3.241337e-004 
3.236864e-004 
3.231512e-004 
3.225278e-004 
3.218163e-004 
3.210170e-004 
3.201301e-004 
3.191559e-004 
3.180950e-004 
3.169482e-004 
3.157161e-004 
3.144000e-004 
3.130010e-004 
3.115205e-004 
3.099602e-004 
3.083220e-004 
3.066081e-004 
3.048208e-004 
3.029628e-004 
3.010372e-004 
2.990473e-004 
2.969966e-004 
2.948891e-004 
2.927290e-004 
2.905209e-004 
2.882698e-004 
2.859808e-004 
2.836594e-004 
2.813116e-004 
2.789435e-004 
2.765614e-004 
2.741722e-004 
2.717827e-004 
2.694000e-004 
2.670315e-004 
2.646848e-004 
2.623673e-004 
2.600868e-004 
2.578511e-004 
2.556678e-004 
2.535448e-004 
2.514896e-004 
2.495097e-004 
2.476124e-004 
2.458048e-004 
2.440937e-004 
2.424855e-004 
2.409862e-004 
2.396016e-004 
2.383368e-004 
2.371964e-004 
2.361843e-004 
2.353042e-004 
2.345586e-004 
2.339499e-004 
2.334792e-004 
2.331472e-004 
2.329538e-004 
2.328981e-004 
2.329783e-004 
2.331919e-004 
2.335355e-004 
2.340050e-004 
2.345954e-004 
2.353010e-004 
2.361151e-004 
2.370305e-004 
2.380391e-004 
2.391322e-004 
2.403003e-004 
2.415333e-004 
2.428206e-004 
2.441507e-004 
2.455120e-004 
2.468919e-004 
2.482779e-004 
2.496567e-004 
2.510148e-004 
2.523385e-004 
2.536138e-004 
2.548267e-004 
2.559633e-004 
2.570099e-004 
2.579531e-004 
2.587804e-004 
2.594802e-004 
2.600421e-004 
2.604578e-004 
2.607186e-004 
2.608174e-004 
2.607366e-004 
2.604639e-004 
1.000000e+000 
1.000000e+000 
3.053685e-004 
3.054239e-004 
3.056436e-004 
3.060127e-004 
3.065129e-004 
3.071270e-004 
3.078382e-004 
3.086307e-004 
3.094888e-004 
3.103971e-004 
3.113412e-004 
3.123074e-004 
3.132829e-004 
3.142560e-004 
3.152161e-004 
3.161536e-004 
3.170600e-004 
3.179277e-004 
3.187500e-004 
3.195209e-004 
3.202353e-004 
3.208887e-004 
3.214773e-004 
3.219977e-004 
3.224471e-004 
3.228230e-004 
3.231232e-004 
3.233461e-004 
3.234901e-004 
3.235540e-004 
3.235367e-004 
3.234374e-004 
3.232552e-004 
3.229897e-004 
3.226403e-004 
3.222067e-004 
3.216888e-004 
3.210862e-004 
3.203992e-004 
3.196277e-004 
3.187719e-004 
3.178323e-004 
3.168093e-004 
3.157035e-004 
3.145156e-004 
3.132468e-004 
3.118981e-004 
3.104708e-004 
3.089667e-004 
3.073873e-004 
3.057349e-004 
3.040117e-004 
3.022204e-004 
3.003637e-004 
2.984448e-004 
2.964673e-004 
2.944349e-004 
2.923516e-004 
2.902219e-004 
2.880505e-004 
2.858425e-004 
2.836031e-004 
2.813381e-004 
2.790533e-004 
2.767549e-004 
2.744494e-004 
2.721435e-004 
2.698440e-004 
2.675581e-004 
2.652929e-004 
2.630559e-004 
2.608544e-004 
2.586959e-004 
2.565880e-004 
2.545379e-004 
2.525532e-004 
2.506410e-004 
2.488084e-004 
2.470622e-004 
2.454090e-004 
2.438549e-004 
2.424058e-004 
2.410671e-004 
2.398439e-004 
2.387404e-004 
2.377607e-004 
2.369079e-004 
2.361848e-004 
2.355934e-004 
2.351348e-004 
2.348097e-004 
2.346179e-004 
2.345585e-004 
2.346297e-004 
2.348290e-004 
2.351532e-004 
2.355982e-004 
2.361591e-004 
2.368304e-004 
2.376056e-004 
2.384777e-004 
2.394390e-004 
2.404809e-004 
2.415944e-004 
2.427697e-004 
2.439966e-004 
2.452643e-004 
2.465615e-004 
2.478764e-004 
2.491969e-004 
2.505107e-004 
2.518050e-004 
2.530669e-004 
2.542834e-004 
2.554415e-004 
2.565284e-004 
2.575314e-004 
2.584383e-004 
2.592374e-004 
2.599179e-004 
2.604697e-004 
2.608834e-004 
2.611489e-004 
2.612558e-004 
2.611889e-004 
2.609357e-004 
1.000000e+000 
1.000000e+000 
3.043635e-004 
3.045298e-004 
3.048319e-004 
3.052593e-004 
3.057971e-004 
3.064312e-004 
3.071474e-004 
3.079320e-004 
3.087713e-004 
3.096521e-004 
3.105618e-004 
3.114884e-004 
3.124207e-004 
3.133483e-004 
3.142616e-004 
3.151522e-004 
3.160122e-004 
3.168347e-004 
3.176136e-004 
3.183433e-004 
3.190192e-004 
3.196370e-004 
3.201930e-004 
3.206842e-004 
3.211078e-004 
3.214614e-004 
3.217430e-004 
3.219509e-004 
3.220837e-004 
3.221400e-004 
3.221188e-004 
3.220192e-004 
3.218404e-004 
3.215819e-004 
3.212430e-004 
3.208236e-004 
3.203231e-004 
3.197416e-004 
3.190789e-004 
3.183350e-004 
3.175102e-004 
3.166046e-004 
3.156187e-004 
3.145531e-004 
3.134085e-004 
3.121858e-004 
3.108859e-004 
3.095103e-004 
3.080604e-004 
3.065378e-004 
3.049446e-004 
3.032829e-004 
3.015551e-004 
2.997641e-004 
2.979129e-004 
2.960047e-004 
2.940433e-004 
2.920325e-004 
2.899765e-004 
2.878799e-004 
2.857476e-004 
2.835847e-004 
2.813966e-004 
2.791890e-004 
2.769680e-004 
2.747398e-004 
2.725108e-004 
2.702877e-004 
2.680773e-004 
2.658867e-004 
2.637229e-004 
2.615932e-004 
2.595048e-004 
2.574649e-004 
2.554808e-004 
2.535597e-004 
2.517084e-004 
2.499339e-004 
2.482427e-004 
2.466413e-004 
2.451356e-004 
2.437313e-004 
2.424337e-004 
2.412475e-004 
2.401772e-004 
2.392263e-004 
2.383981e-004 
2.376952e-004 
2.371195e-004 
2.366722e-004 
2.363537e-004 
2.361640e-004 
2.361020e-004 
2.361661e-004 
2.363538e-004 
2.366619e-004 
2.370865e-004 
2.376227e-004 
2.382652e-004 
2.390078e-004 
2.398437e-004 
2.407652e-004 
2.417642e-004 
2.428319e-004 
2.439591e-004 
2.451357e-004 
2.463516e-004 
2.475958e-004 
2.488572e-004 
2.501243e-004 
2.513853e-004 
2.526283e-004 
2.538411e-004 
2.550116e-004 
2.561278e-004 
2.571775e-004 
2.581492e-004 
2.590315e-004 
2.598134e-004 
2.604847e-004 
2.610355e-004 
2.614559e-004 
2.617358e-004 
2.618645e-004 
2.618280e-004 
2.616165e-004 
1.000000e+000 
1.000000e+000 
3.032074e-004 
3.034966e-004 
3.038953e-004 
3.043952e-004 
3.049849e-004 
3.056533e-004 
3.063887e-004 
3.071792e-004 
3.080133e-004 
3.088796e-004 
3.097674e-004 
3.106663e-004 
3.115663e-004 
3.124585e-004 
3.133345e-004 
3.141866e-004 
3.150079e-004 
3.157922e-004 
3.165339e-004 
3.172280e-004 
3.178702e-004 
3.184567e-004 
3.189841e-004 
3.194495e-004 
3.198503e-004 
3.201843e-004 
3.204496e-004 
3.206445e-004 
3.207677e-004 
3.208180e-004 
3.207941e-004 
3.206954e-004 
3.205210e-004 
3.202702e-004 
3.199425e-004 
3.195376e-004 
3.190551e-004 
3.184947e-004 
3.178563e-004 
3.171400e-004 
3.163458e-004 
3.154738e-004 
3.145246e-004 
3.134984e-004 
3.123961e-004 
3.112183e-004 
3.099660e-004 
3.086404e-004 
3.072429e-004 
3.057751e-004 
3.042387e-004 
3.026359e-004 
3.009690e-004 
2.992407e-004 
2.974537e-004 
2.956113e-004 
2.937169e-004 
2.917743e-004 
2.897875e-004 
2.877610e-004 
2.856993e-004 
2.836076e-004 
2.814909e-004 
2.793548e-004 
2.772052e-004 
2.750480e-004 
2.728895e-004 
2.707362e-004 
2.685947e-004 
2.664718e-004 
2.643744e-004 
2.623096e-004 
2.602844e-004 
2.583058e-004 
2.563809e-004 
2.545166e-004 
2.527197e-004 
2.509969e-004 
2.493547e-004 
2.477993e-004 
2.463365e-004 
2.449719e-004 
2.437106e-004 
2.425573e-004 
2.415161e-004 
2.405908e-004 
2.397845e-004 
2.390996e-004 
2.385379e-004 
2.381008e-004 
2.377886e-004 
2.376012e-004 
2.375377e-004 
2.375963e-004 
2.377748e-004 
2.380699e-004 
2.384777e-004 
2.389938e-004 
2.396127e-004 
2.403284e-004 
2.411344e-004 
2.420232e-004 
2.429871e-004 
2.440174e-004 
2.451052e-004 
2.462410e-004 
2.474149e-004 
2.486164e-004 
2.498350e-004 
2.510598e-004 
2.522794e-004 
2.534828e-004 
2.546583e-004 
2.557947e-004 
2.568806e-004 
2.579049e-004 
2.588566e-004 
2.597251e-004 
2.605003e-004 
2.611723e-004 
2.617315e-004 
2.621683e-004 
2.624731e-004 
2.626359e-004 
2.626446e-004 
2.624907e-004 
1.000000e+000 
1.000000e+000 
3.019312e-004 
3.023520e-004 
3.028572e-004 
3.034407e-004 
3.040941e-004 
3.048088e-004 
3.055751e-004 
3.063834e-004 
3.072241e-004 
3.080875e-004 
3.089644e-004 
3.098459e-004 
3.107237e-004 
3.115898e-004 
3.124369e-004 
3.132584e-004 
3.140482e-004 
3.148008e-004 
3.155113e-004 
3.161752e-004 
3.167886e-004 
3.173481e-004 
3.178507e-004 
3.182937e-004 
3.186747e-004 
3.189918e-004 
3.192432e-004 
3.194273e-004 
3.195428e-004 
3.195885e-004 
3.195635e-004 
3.194668e-004 
3.192978e-004 
3.190556e-004 
3.187398e-004 
3.183500e-004 
3.178858e-004 
3.173468e-004 
3.167329e-004 
3.160441e-004 
3.152803e-004 
3.144417e-004 
3.135285e-004 
3.125411e-004 
3.114801e-004 
3.103462e-004 
3.091402e-004 
3.078632e-004 
3.065164e-004 
3.051013e-004 
3.036197e-004 
3.020734e-004 
3.004647e-004 
2.987960e-004 
2.970700e-004 
2.952898e-004 
2.934587e-004 
2.915803e-004 
2.896585e-004 
2.876974e-004 
2.857016e-004 
2.836759e-004 
2.816253e-004 
2.795552e-004 
2.774712e-004 
2.753791e-004 
2.732850e-004 
2.711952e-004 
2.691162e-004 
2.670546e-004 
2.650171e-004 
2.630106e-004 
2.610419e-004 
2.591180e-004 
2.572458e-004 
2.554319e-004 
2.536832e-004 
2.520061e-004 
2.504070e-004 
2.488920e-004 
2.474668e-004 
2.461369e-004 
2.449073e-004 
2.437826e-004 
2.427669e-004 
2.418639e-004 
2.410765e-004 
2.404074e-004 
2.398582e-004 
2.394301e-004 
2.391237e-004 
2.389388e-004 
2.388745e-004 
2.389291e-004 
2.391003e-004 
2.393851e-004 
2.397796e-004 
2.402795e-004 
2.408794e-004 
2.415736e-004 
2.423557e-004 
2.432184e-004 
2.441542e-004 
2.451547e-004 
2.462114e-004 
2.473151e-004 
2.484561e-004 
2.496247e-004 
2.508105e-004 
2.520032e-004 
2.531921e-004 
2.543665e-004 
2.555156e-004 
2.566288e-004 
2.576954e-004 
2.587049e-004 
2.596471e-004 
2.605122e-004 
2.612904e-004 
2.619725e-004 
2.625495e-004 
2.630124e-004 
2.633521e-004 
2.635599e-004 
2.636257e-004 
2.635423e-004 
1.000000e+000 
1.000000e+000 
3.005639e-004 
3.011215e-004 
3.017402e-004 
3.024157e-004 
3.031421e-004 
3.039128e-004 
3.047201e-004 
3.055565e-004 
3.064137e-004 
3.072841e-004 
3.081598e-004 
3.090333e-004 
3.098976e-004 
3.107459e-004 
3.115720e-004 
3.123702e-004 
3.131352e-004 
3.138622e-004 
3.145471e-004 
3.151858e-004 
3.157751e-004 
3.163119e-004 
3.167934e-004 
3.172174e-004 
3.175818e-004 
3.178847e-004 
3.181246e-004 
3.183001e-004 
3.184098e-004 
3.184528e-004 
3.184281e-004 
3.183348e-004 
3.181722e-004 
3.179396e-004 
3.176366e-004 
3.172625e-004 
3.168170e-004 
3.162998e-004 
3.157106e-004 
3.150493e-004 
3.143159e-004 
3.135103e-004 
3.126327e-004 
3.116835e-004 
3.106631e-004 
3.095721e-004 
3.084111e-004 
3.071813e-004 
3.058836e-004 
3.045195e-004 
3.030905e-004 
3.015984e-004 
3.000452e-004 
2.984334e-004 
2.967654e-004 
2.950441e-004 
2.932727e-004 
2.914546e-004 
2.895935e-004 
2.876936e-004 
2.857590e-004 
2.837945e-004 
2.818049e-004 
2.797954e-004 
2.777715e-004 
2.757388e-004 
2.737032e-004 
2.716710e-004 
2.696483e-004 
2.676418e-004 
2.656579e-004 
2.637033e-004 
2.617849e-004 
2.599094e-004 
2.580835e-004 
2.563140e-004 
2.546074e-004 
2.529701e-004 
2.514085e-004 
2.499284e-004 
2.485357e-004 
2.472356e-004 
2.460331e-004 
2.449329e-004 
2.439390e-004 
2.430550e-004 
2.422839e-004 
2.416281e-004 
2.410896e-004 
2.406694e-004 
2.403681e-004 
2.401856e-004 
2.401209e-004 
2.401726e-004 
2.403384e-004 
2.406152e-004 
2.409994e-004 
2.414866e-004 
2.420719e-004 
2.427494e-004 
2.435129e-004 
2.443555e-004 
2.452698e-004 
2.462477e-004 
2.472809e-004 
2.483604e-004 
2.494772e-004 
2.506216e-004 
2.517839e-004 
2.529540e-004 
2.541219e-004 
2.552774e-004 
2.564103e-004 
2.575104e-004 
2.585677e-004 
2.595724e-004 
2.605149e-004 
2.613860e-004 
2.621765e-004 
2.628778e-004 
2.634815e-004 
2.639793e-004 
2.643631e-004 
2.646252e-004 
2.647575e-004 
2.647541e-004 
1.000000e+000 
1.000000e+000 
2.991315e-004 
2.998288e-004 
3.005657e-004 
3.013393e-004 
3.021460e-004 
3.029804e-004 
3.038372e-004 
3.047100e-004 
3.055925e-004 
3.064784e-004 
3.073612e-004 
3.082349e-004 
3.090936e-004 
3.099315e-004 
3.107437e-004 
3.115251e-004 
3.122715e-004 
3.129788e-004 
3.136433e-004 
3.142618e-004 
3.148314e-004 
3.153495e-004 
3.158137e-004 
3.162221e-004 
3.165729e-004 
3.168644e-004 
3.170953e-004 
3.172643e-004 
3.173703e-004 
3.174123e-004 
3.173895e-004 
3.173010e-004 
3.171461e-004 
3.169242e-004 
3.166348e-004 
3.162772e-004 
3.158511e-004 
3.153561e-004 
3.147919e-004 
3.141583e-004 
3.134551e-004 
3.126823e-004 
3.118401e-004 
3.109285e-004 
3.099480e-004 
3.088989e-004 
3.077819e-004 
3.065979e-004 
3.053478e-004 
3.040329e-004 
3.026545e-004 
3.012144e-004 
2.997144e-004 
2.981567e-004 
2.965437e-004 
2.948781e-004 
2.931630e-004 
2.914015e-004 
2.895973e-004 
2.877543e-004 
2.858765e-004 
2.839685e-004 
2.820350e-004 
2.800811e-004 
2.781120e-004 
2.761332e-004 
2.741506e-004 
2.721702e-004 
2.701980e-004 
2.682405e-004 
2.663041e-004 
2.643955e-004 
2.625212e-004 
2.606880e-004 
2.589025e-004 
2.571713e-004 
2.555010e-004 
2.538978e-004 
2.523681e-004 
2.509177e-004 
2.495523e-004 
2.482773e-004 
2.470976e-004 
2.460178e-004 
2.450419e-004 
2.441736e-004 
2.434158e-004 
2.427711e-004 
2.422412e-004 
2.418275e-004 
2.415305e-004 
2.413500e-004 
2.412854e-004 
2.413350e-004 
2.414966e-004 
2.417675e-004 
2.421440e-004 
2.426219e-004 
2.431961e-004 
2.438613e-004 
2.446112e-004 
2.454392e-004 
2.463379e-004 
2.472997e-004 
2.483163e-004 
2.493793e-004 
2.504796e-004 
2.516081e-004 
2.527554e-004 
2.539119e-004 
2.550679e-004 
2.562137e-004 
2.573396e-004 
2.584360e-004 
2.594934e-004 
2.605025e-004 
2.614544e-004 
2.623403e-004 
2.631518e-004 
2.638807e-004 
2.645193e-004 
2.650602e-004 
2.654961e-004 
2.658203e-004 
2.660265e-004 
2.661097e-004 
1.000000e+000 
1.000000e+000 
2.976573e-004 
2.984955e-004 
2.993536e-004 
3.002299e-004 
3.011221e-004 
3.020266e-004 
3.029394e-004 
3.038558e-004 
3.047708e-004 
3.056795e-004 
3.065768e-004 
3.074578e-004 
3.083177e-004 
3.091520e-004 
3.099566e-004 
3.107273e-004 
3.114608e-004 
3.121536e-004 
3.128027e-004 
3.134056e-004 
3.139598e-004 
3.144631e-004 
3.149136e-004 
3.153098e-004 
3.156499e-004 
3.159328e-004 
3.161572e-004 
3.163221e-004 
3.164264e-004 
3.164693e-004 
3.164500e-004 
3.163678e-004 
3.162220e-004 
3.160119e-004 
3.157370e-004 
3.153968e-004 
3.149907e-004 
3.145185e-004 
3.139796e-004 
3.133739e-004 
3.127011e-004 
3.119611e-004 
3.111538e-004 
3.102794e-004 
3.093381e-004 
3.083302e-004 
3.072562e-004 
3.061168e-004 
3.049129e-004 
3.036456e-004 
3.023160e-004 
3.009257e-004 
2.994765e-004 
2.979704e-004 
2.964096e-004 
2.947967e-004 
2.931345e-004 
2.914262e-004 
2.896751e-004 
2.878849e-004 
2.860597e-004 
2.842039e-004 
2.823218e-004 
2.804186e-004 
2.784992e-004 
2.765692e-004 
2.746341e-004 
2.726999e-004 
2.707725e-004 
2.688584e-004 
2.669637e-004 
2.650951e-004 
2.632591e-004 
2.614623e-004 
2.597113e-004 
2.580127e-004 
2.563729e-004 
2.547983e-004 
2.532951e-004 
2.518692e-004 
2.505262e-004 
2.492715e-004 
2.481102e-004 
2.470466e-004 
2.460850e-004 
2.452290e-004 
2.444816e-004 
2.438454e-004 
2.433222e-004 
2.429134e-004 
2.426195e-004 
2.424406e-004 
2.423758e-004 
2.424239e-004 
2.425826e-004 
2.428491e-004 
2.432201e-004 
2.436913e-004 
2.442580e-004 
2.449147e-004 
2.456554e-004 
2.464737e-004 
2.473623e-004 
2.483139e-004 
2.493204e-004 
2.503735e-004 
2.514647e-004 
2.525849e-004 
2.537251e-004 
2.548761e-004 
2.560286e-004 
2.571733e-004 
2.583009e-004 
2.594022e-004 
2.604684e-004 
2.614905e-004 
2.624602e-004 
2.633692e-004 
2.642096e-004 
2.649740e-004 
2.656551e-004 
2.662462e-004 
2.667410e-004 
2.671338e-004 
2.674195e-004 
2.675942e-004 
1.000000e+000 
1.000000e+000 
2.961626e-004 
2.971417e-004 
2.981227e-004 
2.991046e-004 
3.000864e-004 
3.010658e-004 
3.020400e-004 
3.030057e-004 
3.039593e-004 
3.048970e-004 
3.058149e-004 
3.067094e-004 
3.075767e-004 
3.084133e-004 
3.092159e-004 
3.099814e-004 
3.107071e-004 
3.113903e-004 
3.120288e-004 
3.126203e-004 
3.131631e-004 
3.136554e-004 
3.140957e-004 
3.144828e-004 
3.148153e-004 
3.150923e-004 
3.153128e-004 
3.154758e-004 
3.155805e-004 
3.156262e-004 
3.156122e-004 
3.155379e-004 
3.154025e-004 
3.152054e-004 
3.149462e-004 
3.146242e-004 
3.142390e-004 
3.137901e-004 
3.132771e-004 
3.126996e-004 
3.120573e-004 
3.113500e-004 
3.105776e-004 
3.097401e-004 
3.088374e-004 
3.078700e-004 
3.068381e-004 
3.057422e-004 
3.045832e-004 
3.033618e-004 
3.020793e-004 
3.007370e-004 
2.993364e-004 
2.978795e-004 
2.963682e-004 
2.948051e-004 
2.931928e-004 
2.915342e-004 
2.898325e-004 
2.880915e-004 
2.863148e-004 
2.845068e-004 
2.826717e-004 
2.808145e-004 
2.789400e-004 
2.770536e-004 
2.751609e-004 
2.732676e-004 
2.713797e-004 
2.695032e-004 
2.676447e-004 
2.658104e-004 
2.640069e-004 
2.622408e-004 
2.605186e-004 
2.588469e-004 
2.572322e-004 
2.556807e-004 
2.541987e-004 
2.527922e-004 
2.514667e-004 
2.502277e-004 
2.490802e-004 
2.480288e-004 
2.470777e-004 
2.462305e-004 
2.454905e-004 
2.448601e-004 
2.443413e-004 
2.439356e-004 
2.436436e-004 
2.434653e-004 
2.434002e-004 
2.434469e-004 
2.436033e-004 
2.438669e-004 
2.442341e-004 
2.447010e-004 
2.452629e-004 
2.459146e-004 
2.466501e-004 
2.474631e-004 
2.483466e-004 
2.492934e-004 
2.502956e-004 
2.513452e-004 
2.524337e-004 
2.535526e-004 
2.546931e-004 
2.558462e-004 
2.570029e-004 
2.581544e-004 
2.592917e-004 
2.604061e-004 
2.614890e-004 
2.625321e-004 
2.635274e-004 
2.644671e-004 
2.653438e-004 
2.661507e-004 
2.668810e-004 
2.675288e-004 
2.680884e-004 
2.685551e-004 
2.689245e-004 
2.691939e-004 
1.000000e+000 
1.000000e+000 
2.946665e-004 
2.957859e-004 
2.968904e-004 
2.979798e-004 
2.990540e-004 
3.001118e-004 
3.011517e-004 
3.021714e-004 
3.031685e-004 
3.041403e-004 
3.050843e-004 
3.059975e-004 
3.068775e-004 
3.077215e-004 
3.085273e-004 
3.092925e-004 
3.100151e-004 
3.106933e-004 
3.113253e-004 
3.119096e-004 
3.124448e-004 
3.129297e-004 
3.133632e-004 
3.137443e-004 
3.140722e-004 
3.143459e-004 
3.145649e-004 
3.147284e-004 
3.148357e-004 
3.148862e-004 
3.148793e-004 
3.148144e-004 
3.146909e-004 
3.145082e-004 
3.142658e-004 
3.139631e-004 
3.135996e-004 
3.131748e-004 
3.126882e-004 
3.121393e-004 
3.115277e-004 
3.108533e-004 
3.101156e-004 
3.093146e-004 
3.084503e-004 
3.075227e-004 
3.065320e-004 
3.054787e-004 
3.043633e-004 
3.031866e-004 
3.019495e-004 
3.006533e-004 
2.992993e-004 
2.978893e-004 
2.964251e-004 
2.949090e-004 
2.933436e-004 
2.917315e-004 
2.900760e-004 
2.883803e-004 
2.866484e-004 
2.848840e-004 
2.830917e-004 
2.812760e-004 
2.794418e-004 
2.775943e-004 
2.757389e-004 
2.738813e-004 
2.720275e-004 
2.701835e-004 
2.683556e-004 
2.665501e-004 
2.647736e-004 
2.630326e-004 
2.613337e-004 
2.596834e-004 
2.580882e-004 
2.565545e-004 
2.550885e-004 
2.536962e-004 
2.523832e-004 
2.511552e-004 
2.500171e-004 
2.489737e-004 
2.480292e-004 
2.471873e-004 
2.464514e-004 
2.458240e-004 
2.453073e-004 
2.449026e-004 
2.446109e-004 
2.444323e-004 
2.443661e-004 
2.444113e-004 
2.445659e-004 
2.448272e-004 
2.451922e-004 
2.456567e-004 
2.462163e-004 
2.468658e-004 
2.475996e-004 
2.484112e-004 
2.492941e-004 
2.502409e-004 
2.512441e-004 
2.522959e-004 
2.533880e-004 
2.545120e-004 
2.556594e-004 
2.568215e-004 
2.579897e-004 
2.591552e-004 
2.603097e-004 
2.614445e-004 
2.625517e-004 
2.636231e-004 
2.646512e-004 
2.656286e-004 
2.665485e-004 
2.674042e-004 
2.681899e-004 
2.688999e-004 
2.695294e-004 
2.700741e-004 
2.705306e-004 
2.708967e-004 
1.000000e+000 
1.000000e+000 
2.931866e-004 
2.944451e-004 
2.956730e-004 
2.968708e-004 
2.980393e-004 
2.991783e-004 
3.002870e-004 
3.013644e-004 
3.024090e-004 
3.034193e-004 