# vtk DataFile Version 2.0
2D-ADE data file 
ASCII
DATASET RECTILINEAR_GRID
DIMENSIONS 128 128 1
X_COORDINATES 128 int
0 1 2 3 4 5 6 7 8 9 10 11 12 13 14 15 16 17 18 19 20 21 22 23 24 25 26 27 28 29 30 31 32 33 34 35 36 37 38 39 40 41 42 43 44 45 46 47 48 49 50 51 52 53 54 55 56 57 58 59 60 61 62 63 64 65 66 67 68 69 70 71 72 73 74 75 76 77 78 79 80 81 82 83 84 85 86 87 88 89 90 91 92 93 94 95 96 97 98 99 100 101 102 103 104 105 106 107 108 109 110 111 112 113 114 115 116 117 118 119 120 121 122 123 124 125 126 127 
Y_COORDINATES 128 int
0 1 2 3 4 5 6 7 8 9 10 11 12 13 14 15 16 17 18 19 20 21 22 23 24 25 26 27 28 29 30 31 32 33 34 35 36 37 38 39 40 41 42 43 44 45 46 47 48 49 50 51 52 53 54 55 56 57 58 59 60 61 62 63 64 65 66 67 68 69 70 71 72 73 74 75 76 77 78 79 80 81 82 83 84 85 86 87 88 89 90 91 92 93 94 95 96 97 98 99 100 101 102 103 104 105 106 107 108 109 110 111 112 113 114 115 116 117 118 119 120 121 122 123 124 125 126 127 
Z_COORDINATES 1 int
0
POINT_DATA 16384 
SCALARS density double 1
LOOKUP_TABLE default
1.000000e+000 
1.000000e+000 
1.000000e+000 
1.000000e+000 
1.000000e+000 
1.000000e+000 
1.000000e+000 
1.000000e+000 
1.000000e+000 
1.000000e+000 
1.000000e+000 
1.000000e+000 
1.000000e+000 
1.000000e+000 
1.000000e+000 
1.000000e+000 
1.000000e+000 
1.000000e+000 
1.000000e+000 
1.000000e+000 
1.000000e+000 
1.000000e+000 
1.000000e+000 
1.000000e+000 
1.000000e+000 
1.000000e+000 
1.000000e+000 
1.000000e+000 
1.000000e+000 
1.000000e+000 
1.000000e+000 
1.000000e+000 
1.000000e+000 
1.000000e+000 
1.000000e+000 
1.000000e+000 
1.000000e+000 
1.000000e+000 
1.000000e+000 
1.000000e+000 
1.000000e+000 
1.000000e+000 
1.000000e+000 
1.000000e+000 
1.000000e+000 
1.000000e+000 
1.000000e+000 
1.000000e+000 
1.000000e+000 
1.000000e+000 
1.000000e+000 
1.000000e+000 
1.000000e+000 
1.000000e+000 
1.000000e+000 
1.000000e+000 
1.000000e+000 
1.000000e+000 
1.000000e+000 
1.000000e+000 
1.000000e+000 
1.000000e+000 
1.000000e+000 
1.000000e+000 
1.000000e+000 
1.000000e+000 
1.000000e+000 
1.000000e+000 
1.000000e+000 
1.000000e+000 
1.000000e+000 
1.000000e+000 
1.000000e+000 
1.000000e+000 
1.000000e+000 
1.000000e+000 
1.000000e+000 
1.000000e+000 
1.000000e+000 
1.000000e+000 
1.000000e+000 
1.000000e+000 
1.000000e+000 
1.000000e+000 
1.000000e+000 
1.000000e+000 
1.000000e+000 
1.000000e+000 
1.000000e+000 
1.000000e+000 
1.000000e+000 
1.000000e+000 
1.000000e+000 
1.000000e+000 
1.000000e+000 
1.000000e+000 
1.000000e+000 
1.000000e+000 
1.000000e+000 
1.000000e+000 
1.000000e+000 
1.000000e+000 
1.000000e+000 
1.000000e+000 
1.000000e+000 
1.000000e+000 
1.000000e+000 
1.000000e+000 
1.000000e+000 
1.000000e+000 
1.000000e+000 
1.000000e+000 
1.000000e+000 
1.000000e+000 
1.000000e+000 
1.000000e+000 
1.000000e+000 
1.000000e+000 
1.000000e+000 
1.000000e+000 
1.000000e+000 
1.000000e+000 
1.000000e+000 
1.000000e+000 
1.000000e+000 
1.000000e+000 
1.000000e+000 
1.000000e+000 
1.000000e+000 
3.072995e-004 
3.072104e-004 
3.072948e-004 
3.076247e-004 
3.082138e-004 
3.090211e-004 
3.100049e-004 
3.111286e-004 
3.123592e-004 
3.136663e-004 
3.150233e-004 
3.164067e-004 
3.177961e-004 
3.191740e-004 
3.205251e-004 
3.218363e-004 
3.230965e-004 
3.242963e-004 
3.254276e-004 
3.264836e-004 
3.274588e-004 
3.283484e-004 
3.291486e-004 
3.298562e-004 
3.304688e-004 
3.309841e-004 
3.314007e-004 
3.317172e-004 
3.319326e-004 
3.320461e-004 
3.320572e-004 
3.319655e-004 
3.317707e-004 
3.314726e-004 
3.310711e-004 
3.305661e-004 
3.299579e-004 
3.292465e-004 
3.284321e-004 
3.275150e-004 
3.264957e-004 
3.253748e-004 
3.241527e-004 
3.228305e-004 
3.214089e-004 
3.198892e-004 
3.182727e-004 
3.165610e-004 
3.147560e-004 
3.128597e-004 
3.108745e-004 
3.088032e-004 
3.066487e-004 
3.044145e-004 
3.021042e-004 
2.997220e-004 
2.972723e-004 
2.947600e-004 
2.921904e-004 
2.895690e-004 
2.869020e-004 
2.841958e-004 
2.814571e-004 
2.786932e-004 
2.759114e-004 
2.731197e-004 
2.703261e-004 
2.675391e-004 
2.647674e-004 
2.620196e-004 
2.593049e-004 
2.566324e-004 
2.540113e-004 
2.514507e-004 
2.489600e-004 
2.465482e-004 
2.442243e-004 
2.419971e-004 
2.398752e-004 
2.378666e-004 
2.359794e-004 
2.342209e-004 
2.325980e-004 
2.311171e-004 
2.297840e-004 
2.286037e-004 
2.275807e-004 
2.267185e-004 
2.260202e-004 
2.254875e-004 
2.251217e-004 
2.249231e-004 
2.248908e-004 
2.250233e-004 
2.253180e-004 
2.257713e-004 
2.263786e-004 
2.271345e-004 
2.280325e-004 
2.290652e-004 
2.302242e-004 
2.315002e-004 
2.328832e-004 
2.343620e-004 
2.359248e-004 
2.375588e-004 
2.392507e-004 
2.409859e-004 
2.427497e-004 
2.445261e-004 
2.462987e-004 
2.480503e-004 
2.497630e-004 
2.514183e-004 
2.529970e-004 
2.544794e-004 
2.558451e-004 
2.570735e-004 
2.581438e-004 
2.590356e-004 
2.597307e-004 
2.602129e-004 
2.604701e-004 
2.605049e-004 
2.603952e-004 
2.602426e-004 
1.000000e+000 
1.000000e+000 
3.073888e-004 
3.072995e-004 
3.074004e-004 
3.077225e-004 
3.082502e-004 
3.089663e-004 
3.098430e-004 
3.108501e-004 
3.119586e-004 
3.131421e-004 
3.143765e-004 
3.156405e-004 
3.169150e-004 
3.181834e-004 
3.194310e-004 
3.206452e-004 
3.218151e-004 
3.229314e-004 
3.239860e-004 
3.249721e-004 
3.258839e-004 
3.267165e-004 
3.274660e-004 
3.281290e-004 
3.287027e-004 
3.291847e-004 
3.295734e-004 
3.298671e-004 
3.300648e-004 
3.301654e-004 
3.301682e-004 
3.300727e-004 
3.298785e-004 
3.295852e-004 
3.291927e-004 
3.287008e-004 
3.281097e-004 
3.274194e-004 
3.266301e-004 
3.257420e-004 
3.247556e-004 
3.236714e-004 
3.224900e-004 
3.212122e-004 
3.198391e-004 
3.183717e-004 
3.168113e-004 
3.151597e-004 
3.134185e-004 
3.115899e-004 
3.096762e-004 
3.076800e-004 
3.056044e-004 
3.034527e-004 
3.012283e-004 
2.989354e-004 
2.965784e-004 
2.941618e-004 
2.916907e-004 
2.891708e-004 
2.866076e-004 
2.840075e-004 
2.813770e-004 
2.787229e-004 
2.760525e-004 
2.733732e-004 
2.706928e-004 
2.680194e-004 
2.653612e-004 
2.627266e-004 
2.601243e-004 
2.575630e-004 
2.550513e-004 
2.525981e-004 
2.502121e-004 
2.479021e-004 
2.456764e-004 
2.435435e-004 
2.415114e-004 
2.395879e-004 
2.377804e-004 
2.360959e-004 
2.345409e-004 
2.331215e-004 
2.318429e-004 
2.307100e-004 
2.297268e-004 
2.288968e-004 
2.282225e-004 
2.277057e-004 
2.273475e-004 
2.271478e-004 
2.271060e-004 
2.272203e-004 
2.274882e-004 
2.279061e-004 
2.284696e-004 
2.291734e-004 
2.300113e-004 
2.309759e-004 
2.320593e-004 
2.332526e-004 
2.345460e-004 
2.359289e-004 
2.373898e-004 
2.389168e-004 
2.404967e-004 
2.421162e-004 
2.437608e-004 
2.454155e-004 
2.470649e-004 
2.486927e-004 
2.502821e-004 
2.518160e-004 
2.532765e-004 
2.546457e-004 
2.559051e-004 
2.570365e-004 
2.580221e-004 
2.588451e-004 
2.594903e-004 
2.599472e-004 
2.602138e-004 
2.603014e-004 
2.602426e-004 
2.600899e-004 
1.000000e+000 
1.000000e+000 
3.073044e-004 
3.071983e-004 
3.072995e-004 
3.076087e-004 
3.080976e-004 
3.087539e-004 
3.095537e-004 
3.104720e-004 
3.114844e-004 
3.125679e-004 
3.137010e-004 
3.148643e-004 
3.160404e-004 
3.172136e-004 
3.183703e-004 
3.194984e-004 
3.205874e-004 
3.216282e-004 
3.226129e-004 
3.235348e-004 
3.243881e-004 
3.251679e-004 
3.258701e-004 
3.264912e-004 
3.270283e-004 
3.274790e-004 
3.278413e-004 
3.281135e-004 
3.282944e-004 
3.283828e-004 
3.283780e-004 
3.282791e-004 
3.280857e-004 
3.277975e-004 
3.274141e-004 
3.269354e-004 
3.263613e-004 
3.256920e-004 
3.249274e-004 
3.240679e-004 
3.231139e-004 
3.220658e-004 
3.209243e-004 
3.196901e-004 
3.183642e-004 
3.169477e-004 
3.154419e-004 
3.138485e-004 
3.121691e-004 
3.104058e-004 
3.085609e-004 
3.066370e-004 
3.046370e-004 
3.025640e-004 
3.004217e-004 
2.982138e-004 
2.959446e-004 
2.936187e-004 
2.912409e-004 
2.888164e-004 
2.863510e-004 
2.838506e-004 
2.813214e-004 
2.787701e-004 
2.762035e-004 
2.736289e-004 
2.710538e-004 
2.684857e-004 
2.659327e-004 
2.634029e-004 
2.609043e-004 
2.584454e-004 
2.560345e-004 
2.536800e-004 
2.513902e-004 
2.491735e-004 
2.470378e-004 
2.449912e-004 
2.430412e-004 
2.411954e-004 
2.394607e-004 
2.378438e-004 
2.363508e-004 
2.349874e-004 
2.337586e-004 
2.326690e-004 
2.317224e-004 
2.309219e-004 
2.302699e-004 
2.297680e-004 
2.294171e-004 
2.292172e-004 
2.291674e-004 
2.292661e-004 
2.295106e-004 
2.298975e-004 
2.304225e-004 
2.310804e-004 
2.318651e-004 
2.327697e-004 
2.337863e-004 
2.349064e-004 
2.361207e-004 
2.374188e-004 
2.387900e-004 
2.402225e-004 
2.417041e-004 
2.432218e-004 
2.447620e-004 
2.463106e-004 
2.478527e-004 
2.493732e-004 
2.508565e-004 
2.522864e-004 
2.536466e-004 
2.549206e-004 
2.560918e-004 
2.571439e-004 
2.580614e-004 
2.588301e-004 
2.594376e-004 
2.598752e-004 
2.601405e-004 
2.602431e-004 
2.601835e-004 
2.599796e-004 
1.000000e+000 
1.000000e+000 
3.069735e-004 
3.068750e-004 
3.069902e-004 
3.073007e-004 
3.077753e-004 
3.083974e-004 
3.091459e-004 
3.100005e-004 
3.109406e-004 
3.119457e-004 
3.129971e-004 
3.140774e-004 
3.151706e-004 
3.162625e-004 
3.173404e-004 
3.183929e-004 
3.194101e-004 
3.203833e-004 
3.213050e-004 
3.221685e-004 
3.229683e-004 
3.236995e-004 
3.243579e-004 
3.249401e-004 
3.254431e-004 
3.258645e-004 
3.262021e-004 
3.264542e-004 
3.266195e-004 
3.266966e-004 
3.266848e-004 
3.265831e-004 
3.263911e-004 
3.261082e-004 
3.257341e-004 
3.252686e-004 
3.247115e-004 
3.240630e-004 
3.233229e-004 
3.224917e-004 
3.215695e-004 
3.205569e-004 
3.194545e-004 
3.182629e-004 
3.169831e-004 
3.156163e-004 
3.141635e-004 
3.126265e-004 
3.110069e-004 
3.093066e-004 
3.075279e-004 
3.056733e-004 
3.037457e-004 
3.017480e-004 
2.996838e-004 
2.975567e-004 
2.953709e-004 
2.931306e-004 
2.908408e-004 
2.885063e-004 
2.861327e-004 
2.837256e-004 
2.812911e-004 
2.788357e-004 
2.763658e-004 
2.738884e-004 
2.714108e-004 
2.689403e-004 
2.664844e-004 
2.640510e-004 
2.616479e-004 
2.592831e-004 
2.569647e-004 
2.547005e-004 
2.524987e-004 
2.503671e-004 
2.483135e-004 
2.463455e-004 
2.444704e-004 
2.426952e-004 
2.410267e-004 
2.394712e-004 
2.380345e-004 
2.367220e-004 
2.355385e-004 
2.344883e-004 
2.335750e-004 
2.328015e-004 
2.321701e-004 
2.316821e-004 
2.313385e-004 
2.311390e-004 
2.310828e-004 
2.311683e-004 
2.313927e-004 
2.317528e-004 
2.322444e-004 
2.328622e-004 
2.336006e-004 
2.344526e-004 
2.354109e-004 
2.364671e-004 
2.376122e-004 
2.388364e-004 
2.401292e-004 
2.414796e-004 
2.428756e-004 
2.443051e-004 
2.457550e-004 
2.472120e-004 
2.486621e-004 
2.500910e-004 
2.514842e-004 
2.528266e-004 
2.541031e-004 
2.552987e-004 
2.563983e-004 
2.573874e-004 
2.582520e-004 
2.589795e-004 
2.595592e-004 
2.599835e-004 
2.602463e-004 
2.603472e-004 
2.602700e-004 
2.600117e-004 
1.000000e+000 
1.000000e+000 
3.063804e-004 
3.063438e-004 
3.064999e-004 
3.068284e-004 
3.073056e-004 
3.079132e-004 
3.086321e-004 
3.094446e-004 
3.103326e-004 
3.112785e-004 
3.122657e-004 
3.132789e-004 
3.143037e-004 
3.153272e-004 
3.163378e-004 
3.173248e-004 
3.182792e-004 
3.191926e-004 
3.200580e-004 
3.208691e-004 
3.216204e-004 
3.223072e-004 
3.229256e-004 
3.234721e-004 
3.239437e-004 
3.243379e-004 
3.246527e-004 
3.248863e-004 
3.250372e-004 
3.251042e-004 
3.250863e-004 
3.249825e-004 
3.247924e-004 
3.245152e-004 
3.241508e-004 
3.236986e-004 
3.231587e-004 
3.225308e-004 
3.218152e-004 
3.210118e-004 
3.201211e-004 
3.191434e-004 
3.180793e-004 
3.169294e-004 
3.156947e-004 
3.143761e-004 
3.129749e-004 
3.114925e-004 
3.099306e-004 
3.082911e-004 
3.065761e-004 
3.047881e-004 
3.029297e-004 
3.010039e-004 
2.990140e-004 
2.969637e-004 
2.948568e-004 
2.926975e-004 
2.904905e-004 
2.882407e-004 
2.859531e-004 
2.836334e-004 
2.812874e-004 
2.789212e-004 
2.765411e-004 
2.741540e-004 
2.717666e-004 
2.693860e-004 
2.670197e-004 
2.646750e-004 
2.623595e-004 
2.600810e-004 
2.578470e-004 
2.556653e-004 
2.535437e-004 
2.514897e-004 
2.495107e-004 
2.476140e-004 
2.458067e-004 
2.440956e-004 
2.424870e-004 
2.409870e-004 
2.396013e-004 
2.383349e-004 
2.371925e-004 
2.361780e-004 
2.352950e-004 
2.345462e-004 
2.339337e-004 
2.334589e-004 
2.331223e-004 
2.329240e-004 
2.328629e-004 
2.329373e-004 
2.331448e-004 
2.334820e-004 
2.339448e-004 
2.345282e-004 
2.352265e-004 
2.360332e-004 
2.369410e-004 
2.379420e-004 
2.390273e-004 
2.401877e-004 
2.414130e-004 
2.426925e-004 
2.440151e-004 
2.453689e-004 
2.467417e-004 
2.481208e-004 
2.494930e-004 
2.508449e-004 
2.521627e-004 
2.534326e-004 
2.546407e-004 
2.557729e-004 
2.568156e-004 
2.577556e-004 
2.585803e-004 
2.592781e-004 
2.598386e-004 
2.602536e-004 
2.605142e-004 
2.606134e-004 
2.605337e-004 
2.602627e-004 
1.000000e+000 
1.000000e+000 
3.055641e-004 
3.056201e-004 
3.058395e-004 
3.062074e-004 
3.067056e-004 
3.073170e-004 
3.080250e-004 
3.088137e-004 
3.096674e-004 
3.105710e-004 
3.115099e-004 
3.124706e-004 
3.134403e-004 
3.144074e-004 
3.153614e-004 
3.162926e-004 
3.171926e-004 
3.180539e-004 
3.188696e-004 
3.196340e-004 
3.203418e-004 
3.209888e-004 
3.215709e-004 
3.220849e-004 
3.225279e-004 
3.228975e-004 
3.231916e-004 
3.234084e-004 
3.235464e-004 
3.236044e-004 
3.235814e-004 
3.234765e-004 
3.232888e-004 
3.230180e-004 
3.226635e-004 
3.222250e-004 
3.217022e-004 
3.210952e-004 
3.204037e-004 
3.196281e-004 
3.187684e-004 
3.178250e-004 
3.167985e-004 
3.156895e-004 
3.144987e-004 
3.132272e-004 
3.118760e-004 
3.104466e-004 
3.089405e-004 
3.073596e-004 
3.057058e-004 
3.039816e-004 
3.021894e-004 
3.003322e-004 
2.984131e-004 
2.964356e-004 
2.944034e-004 
2.923206e-004 
2.901916e-004 
2.880211e-004 
2.858142e-004 
2.835761e-004 
2.813124e-004 
2.790292e-004 
2.767324e-004 
2.744287e-004 
2.721245e-004 
2.698269e-004 
2.675427e-004 
2.652793e-004 
2.630440e-004 
2.608441e-004 
2.586871e-004 
2.565805e-004 
2.545316e-004 
2.525478e-004 
2.506363e-004 
2.488041e-004 
2.470580e-004 
2.454046e-004 
2.438500e-004 
2.424000e-004 
2.410601e-004 
2.398352e-004 
2.387297e-004 
2.377475e-004 
2.368919e-004 
2.361655e-004 
2.355704e-004 
2.351077e-004 
2.347781e-004 
2.345815e-004 
2.345168e-004 
2.345824e-004 
2.347758e-004 
2.350937e-004 
2.355321e-004 
2.360863e-004 
2.367505e-004 
2.375186e-004 
2.383834e-004 
2.393372e-004 
2.403716e-004 
2.414776e-004 
2.426455e-004 
2.438650e-004 
2.451254e-004 
2.464155e-004 
2.477235e-004 
2.490374e-004 
2.503449e-004 
2.516331e-004 
2.528894e-004 
2.541007e-004 
2.552542e-004 
2.563368e-004 
2.573361e-004 
2.582399e-004 
2.590364e-004 
2.597150e-004 
2.602654e-004 
2.606783e-004 
2.609437e-004 
2.610510e-004 
2.609853e-004 
2.607341e-004 
1.000000e+000 
1.000000e+000 
3.045635e-004 
3.047300e-004 
3.050314e-004 
3.054574e-004 
3.059930e-004 
3.066244e-004 
3.073374e-004 
3.081181e-004 
3.089531e-004 
3.098293e-004 
3.107340e-004 
3.116552e-004 
3.125819e-004 
3.135037e-004 
3.144112e-004 
3.152956e-004 
3.161495e-004 
3.169657e-004 
3.177382e-004 
3.184616e-004 
3.191311e-004 
3.197425e-004 
3.202923e-004 
3.207771e-004 
3.211945e-004 
3.215419e-004 
3.218174e-004 
3.220193e-004 
3.221461e-004 
3.221965e-004 
3.221696e-004 
3.220644e-004 
3.218801e-004 
3.216162e-004 
3.212722e-004 
3.208476e-004 
3.203423e-004 
3.197561e-004 
3.190888e-004 
3.183406e-004 
3.175117e-004 
3.166022e-004 
3.156126e-004 
3.145436e-004 
3.133958e-004 
3.121701e-004 
3.108675e-004 
3.094895e-004 
3.080373e-004 
3.065128e-004 
3.049179e-004 
3.032549e-004 
3.015260e-004 
2.997342e-004 
2.978823e-004 
2.959738e-004 
2.940123e-004 
2.920016e-004 
2.899459e-004 
2.878499e-004 
2.857184e-004 
2.835564e-004 
2.813693e-004 
2.791630e-004 
2.769433e-004 
2.747164e-004 
2.724889e-004 
2.702672e-004 
2.680584e-004 
2.658692e-004 
2.637068e-004 
2.615784e-004 
2.594913e-004 
2.574525e-004 
2.554693e-004 
2.535488e-004 
2.516980e-004 
2.499238e-004 
2.482326e-004 
2.466308e-004 
2.451244e-004 
2.437192e-004 
2.424202e-004 
2.412324e-004 
2.401599e-004 
2.392065e-004 
2.383755e-004 
2.376694e-004 
2.370900e-004 
2.366386e-004 
2.363157e-004 
2.361212e-004 
2.360540e-004 
2.361126e-004 
2.362945e-004 
2.365966e-004 
2.370147e-004 
2.375444e-004 
2.381801e-004 
2.389157e-004 
2.397445e-004 
2.406588e-004 
2.416506e-004 
2.427111e-004 
2.438310e-004 
2.450005e-004 
2.462093e-004 
2.474466e-004 
2.487014e-004 
2.499620e-004 
2.512169e-004 
2.524541e-004 
2.536615e-004 
2.548270e-004 
2.559386e-004 
2.569843e-004 
2.579523e-004 
2.588315e-004 
2.596110e-004 
2.602804e-004 
2.608297e-004 
2.612494e-004 
2.615292e-004 
2.616584e-004 
2.616232e-004 
2.614136e-004 
1.000000e+000 
1.000000e+000 
3.034126e-004 
3.037016e-004 
3.040992e-004 
3.045974e-004 
3.051848e-004 
3.058503e-004 
3.065822e-004 
3.073689e-004 
3.081987e-004 
3.090605e-004 
3.099433e-004 
3.108369e-004 
3.117316e-004 
3.126181e-004 
3.134883e-004 
3.143345e-004 
3.151498e-004 
3.159280e-004 
3.166635e-004 
3.173515e-004 
3.179875e-004 
3.185677e-004 
3.190889e-004 
3.195481e-004 
3.199427e-004 
3.202706e-004 
3.205298e-004 
3.207188e-004 
3.208361e-004 
3.208804e-004 
3.208509e-004 
3.207465e-004 
3.205665e-004 
3.203102e-004 
3.199773e-004 
3.195672e-004 
3.190796e-004 
3.185144e-004 
3.178714e-004 
3.171505e-004 
3.163520e-004 
3.154759e-004 
3.145228e-004 
3.134929e-004 
3.123871e-004 
3.112061e-004 
3.099508e-004 
3.086225e-004 
3.072225e-004 
3.057525e-004 
3.042142e-004 
3.026097e-004 
3.009414e-004 
2.992118e-004 
2.974239e-004 
2.955808e-004 
2.936860e-004 
2.917432e-004 
2.897564e-004 
2.877301e-004 
2.856689e-004 
2.835777e-004 
2.814617e-004 
2.793266e-004 
2.771779e-004 
2.750218e-004 
2.728644e-004 
2.707123e-004 
2.685720e-004 
2.664503e-004 
2.643541e-004 
2.622904e-004 
2.602661e-004 
2.582884e-004 
2.563642e-004 
2.545004e-004 
2.527038e-004 
2.509811e-004 
2.493388e-004 
2.477829e-004 
2.463193e-004 
2.449536e-004 
2.436909e-004 
2.425358e-004 
2.414925e-004 
2.405647e-004 
2.397555e-004 
2.390673e-004 
2.385021e-004 
2.380609e-004 
2.377444e-004 
2.375523e-004 
2.374837e-004 
2.375370e-004 
2.377097e-004 
2.379989e-004 
2.384005e-004 
2.389101e-004 
2.395224e-004 
2.402313e-004 
2.410304e-004 
2.419122e-004 
2.428690e-004 
2.438923e-004 
2.449731e-004 
2.461019e-004 
2.472690e-004 
2.484639e-004 
2.496760e-004 
2.508945e-004 
2.521083e-004 
2.533059e-004 
2.544762e-004 
2.556077e-004 
2.566892e-004 
2.577094e-004 
2.586576e-004 
2.595231e-004 
2.602959e-004 
2.609659e-004 
2.615237e-004 
2.619598e-004 
2.622644e-004 
2.624278e-004 
2.624377e-004 
2.622858e-004 
1.000000e+000 
1.000000e+000 
3.021425e-004 
3.025625e-004 
3.030662e-004 
3.036476e-004 
3.042984e-004 
3.050100e-004 
3.057727e-004 
3.065771e-004 
3.074135e-004 
3.082723e-004 
3.091443e-004 
3.100207e-004 
3.108931e-004 
3.117537e-004 
3.125952e-004 
3.134109e-004 
3.141948e-004 
3.149414e-004 
3.156459e-004 
3.163037e-004 
3.169110e-004 
3.174644e-004 
3.179609e-004 
3.183978e-004 
3.187727e-004 
3.190838e-004 
3.193291e-004 
3.195072e-004 
3.196168e-004 
3.196567e-004 
3.196259e-004 
3.195235e-004 
3.193488e-004 
3.191011e-004 
3.187799e-004 
3.183848e-004 
3.179154e-004 
3.173714e-004 
3.167527e-004 
3.160592e-004 
3.152908e-004 
3.144479e-004 
3.135306e-004 
3.125393e-004 
3.114746e-004 
3.103371e-004 
3.091279e-004 
3.078479e-004 
3.064983e-004 
3.050807e-004 
3.035968e-004 
3.020485e-004 
3.004381e-004 
2.987678e-004 
2.970406e-004 
2.952595e-004 
2.934276e-004 
2.915486e-004 
2.896265e-004 
2.876653e-004 
2.856696e-004 
2.836442e-004 
2.815940e-004 
2.795245e-004 
2.774411e-004 
2.753498e-004 
2.732566e-004 
2.711677e-004 
2.690897e-004 
2.670290e-004 
2.649924e-004 
2.629868e-004 
2.610189e-004 
2.590956e-004 
2.572239e-004 
2.554104e-004 
2.536618e-004 
2.519847e-004 
2.503853e-004 
2.488697e-004 
2.474437e-004 
2.461126e-004 
2.448815e-004 
2.437550e-004 
2.427371e-004 
2.418316e-004 
2.410414e-004 
2.403690e-004 
2.398162e-004 
2.393842e-004 
2.390735e-004 
2.388839e-004 
2.388146e-004 
2.388639e-004 
2.390296e-004 
2.393085e-004 
2.396970e-004 
2.401905e-004 
2.407840e-004 
2.414716e-004 
2.422469e-004 
2.431028e-004 
2.440316e-004 
2.450253e-004 
2.460752e-004 
2.471721e-004 
2.483065e-004 
2.494685e-004 
2.506480e-004 
2.518346e-004 
2.530177e-004 
2.541866e-004 
2.553306e-004 
2.564390e-004 
2.575012e-004 
2.585068e-004 
2.594455e-004 
2.603076e-004 
2.610834e-004 
2.617636e-004 
2.623391e-004 
2.628012e-004 
2.631407e-004 
2.633490e-004 
2.634159e-004 
2.633344e-004 
1.000000e+000 
1.000000e+000 
3.007820e-004 
3.013382e-004 
3.019549e-004 
3.026279e-004 
3.033514e-004 
3.041186e-004 
3.049223e-004 
3.057545e-004 
3.066074e-004 
3.074731e-004 
3.083439e-004 
3.092123e-004 
3.100713e-004 
3.109142e-004 
3.117347e-004 
3.125272e-004 
3.132864e-004 
3.140076e-004 
3.146866e-004 
3.153194e-004 
3.159026e-004 
3.164334e-004 
3.169089e-004 
3.173269e-004 
3.176852e-004 
3.179821e-004 
3.182160e-004 
3.183855e-004 
3.184893e-004 
3.185264e-004 
3.184958e-004 
3.183967e-004 
3.182284e-004 
3.179903e-004 
3.176817e-004 
3.173022e-004 
3.168514e-004 
3.163290e-004 
3.157348e-004 
3.150686e-004 
3.143304e-004 
3.135202e-004 
3.126383e-004 
3.116849e-004 
3.106605e-004 
3.095657e-004 
3.084012e-004 
3.071681e-004 
3.058674e-004 
3.045004e-004 
3.030688e-004 
3.015744e-004 
3.000192e-004 
2.984055e-004 
2.967359e-004 
2.950133e-004 
2.932408e-004 
2.914219e-004 
2.895602e-004 
2.876598e-004 
2.857250e-004 
2.837605e-004 
2.817710e-004 
2.797618e-004 
2.777383e-004 
2.757061e-004 
2.736712e-004 
2.716396e-004 
2.696177e-004 
2.676118e-004 
2.656286e-004 
2.636748e-004 
2.617569e-004 
2.598819e-004 
2.580564e-004 
2.562871e-004 
2.545805e-004 
2.529431e-004 
2.513810e-004 
2.499003e-004 
2.485066e-004 
2.472053e-004 
2.460013e-004 
2.448993e-004 
2.439032e-004 
2.430167e-004 
2.422427e-004 
2.415837e-004 
2.410416e-004 
2.406175e-004 
2.403120e-004 
2.401249e-004 
2.400553e-004 
2.401018e-004 
2.402621e-004 
2.405332e-004 
2.409114e-004 
2.413925e-004 
2.419714e-004 
2.426424e-004 
2.433993e-004 
2.442352e-004 
2.451427e-004 
2.461139e-004 
2.471404e-004 
2.482133e-004 
2.493236e-004 
2.504616e-004 
2.516177e-004 
2.527819e-004 
2.539441e-004 
2.550942e-004 
2.562220e-004 
2.573174e-004 
2.583704e-004 
2.593712e-004 
2.603103e-004 
2.611783e-004 
2.619664e-004 
2.626657e-004 
2.632679e-004 
2.637649e-004 
2.641484e-004 
2.644109e-004 
2.645442e-004 
2.645425e-004 
1.000000e+000 
1.000000e+000 
2.993569e-004 
3.000521e-004 
3.007865e-004 
3.015572e-004 
3.023605e-004 
3.031913e-004 
3.040441e-004 
3.049126e-004 
3.057907e-004 
3.066718e-004 
3.075497e-004 
3.084183e-004 
3.092717e-004 
3.101043e-004 
3.109109e-004 
3.116868e-004 
3.124275e-004 
3.131290e-004 
3.137876e-004 
3.144003e-004 
3.149640e-004 
3.154761e-004 
3.159344e-004 
3.163368e-004 
3.166815e-004 
3.169671e-004 
3.171920e-004 
3.173550e-004 
3.174550e-004 
3.174911e-004 
3.174623e-004 
3.173680e-004 
3.172073e-004 
3.169797e-004 
3.166845e-004 
3.163214e-004 
3.158898e-004 
3.153894e-004 
3.148200e-004 
3.141813e-004 
3.134731e-004 
3.126956e-004 
3.118487e-004 
3.109327e-004 
3.099479e-004 
3.088948e-004 
3.077740e-004 
3.065864e-004 
3.053329e-004 
3.040149e-004 
3.026336e-004 
3.011909e-004 
2.996885e-004 
2.981286e-004 
2.965137e-004 
2.948465e-004 
2.931300e-004 
2.913673e-004 
2.895622e-004 
2.877184e-004 
2.858402e-004 
2.839319e-004 
2.819983e-004 
2.800443e-004 
2.780754e-004 
2.760969e-004 
2.741147e-004 
2.721346e-004 
2.701630e-004 
2.682060e-004 
2.662701e-004 
2.643620e-004 
2.624881e-004 
2.606553e-004 
2.588700e-004 
2.571389e-004 
2.554685e-004 
2.538650e-004 
2.523348e-004 
2.508837e-004 
2.495174e-004 
2.482411e-004 
2.470598e-004 
2.459782e-004 
2.450001e-004 
2.441292e-004 
2.433686e-004 
2.427207e-004 
2.421874e-004 
2.417698e-004 
2.414686e-004 
2.412836e-004 
2.412141e-004 
2.412586e-004 
2.414149e-004 
2.416801e-004 
2.420507e-004 
2.425225e-004 
2.430905e-004 
2.437493e-004 
2.444928e-004 
2.453141e-004 
2.462062e-004 
2.471614e-004 
2.481715e-004 
2.492279e-004 
2.503218e-004 
2.514440e-004 
2.525852e-004 
2.537359e-004 
2.548863e-004 
2.560267e-004 
2.571476e-004 
2.582394e-004 
2.592925e-004 
2.602977e-004 
2.612462e-004 
2.621291e-004 
2.629380e-004 
2.636649e-004 
2.643020e-004 
2.648419e-004 
2.652774e-004 
2.656019e-004 
2.658089e-004 
2.658936e-004 
1.000000e+000 
1.000000e+000 
2.978906e-004 
2.987260e-004 
2.995810e-004 
3.004538e-004 
3.013423e-004 
3.022429e-004 
3.031514e-004 
3.040633e-004 
3.049737e-004 
3.058775e-004 
3.067698e-004 
3.076457e-004 
3.085003e-004 
3.093293e-004 
3.101283e-004 
3.108936e-004 
3.116214e-004 
3.123084e-004 
3.129519e-004 
3.135489e-004 
3.140972e-004 
3.145946e-004 
3.150392e-004 
3.154294e-004 
3.157636e-004 
3.160405e-004 
3.162589e-004 
3.164177e-004 
3.165160e-004 
3.165529e-004 
3.165276e-004 
3.164394e-004 
3.162877e-004 
3.160717e-004 
3.157910e-004 
3.154451e-004 
3.150334e-004 
3.145555e-004 
3.140112e-004 
3.134002e-004 
3.127222e-004 
3.119771e-004 
3.111650e-004 
3.102859e-004 
3.093400e-004 
3.083278e-004 
3.072497e-004 
3.061064e-004 
3.048988e-004 
3.036280e-004 
3.022953e-004 
3.009021e-004 
2.994502e-004 
2.979416e-004 
2.963786e-004 
2.947638e-004 
2.930999e-004 
2.913900e-004 
2.896377e-004 
2.878465e-004 
2.860206e-004 
2.841641e-004 
2.822817e-004 
2.803782e-004 
2.784587e-004 
2.765287e-004 
2.745938e-004 
2.726598e-004 
2.707328e-004 
2.688189e-004 
2.669246e-004 
2.650563e-004 
2.632206e-004 
2.614240e-004 
2.596731e-004 
2.579745e-004 
2.563346e-004 
2.547596e-004 
2.532559e-004 
2.518292e-004 
2.504852e-004 
2.492293e-004 
2.480663e-004 
2.470009e-004 
2.460372e-004 
2.451786e-004 
2.444284e-004 
2.437891e-004 
2.432624e-004 
2.428498e-004 
2.425518e-004 
2.423684e-004 
2.422989e-004 
2.423419e-004 
2.424953e-004 
2.427563e-004 
2.431215e-004 
2.435867e-004 
2.441473e-004 
2.447977e-004 
2.455320e-004 
2.463438e-004 
2.472260e-004 
2.481710e-004 
2.491710e-004 
2.502177e-004 
2.513025e-004 
2.524166e-004 
2.535508e-004 
2.546960e-004 
2.558429e-004 
2.569823e-004 
2.581049e-004 
2.592016e-004 
2.602635e-004 
2.612818e-004 
2.622480e-004 
2.631539e-004 
2.639917e-004 
2.647540e-004 
2.654334e-004 
2.660235e-004 
2.665178e-004 
2.669107e-004 
2.671970e-004 
2.673729e-004 
1.000000e+000 
1.000000e+000 
2.964040e-004 
2.973797e-004 
2.983569e-004 
2.993349e-004 
3.003125e-004 
3.012876e-004 
3.022573e-004 
3.032183e-004 
3.041670e-004 
3.050997e-004 
3.060126e-004 
3.069019e-004 
3.077638e-004 
3.085950e-004 
3.093922e-004 
3.101522e-004 
3.108723e-004 
3.115498e-004 
3.121825e-004 
3.127683e-004 
3.133052e-004 
3.137917e-004 
3.142261e-004 
3.146072e-004 
3.149338e-004 
3.152047e-004 
3.154191e-004 
3.155761e-004 
3.156747e-004 
3.157144e-004 
3.156943e-004 
3.156138e-004 
3.154724e-004 
3.152693e-004 
3.150041e-004 
3.146762e-004 
3.142852e-004 
3.138305e-004 
3.133118e-004 
3.127287e-004 
3.120810e-004 
3.113684e-004 
3.105908e-004 
3.097483e-004 
3.088408e-004 
3.078688e-004 
3.068324e-004 
3.057324e-004 
3.045693e-004 
3.033442e-004 
3.020582e-004 
3.007126e-004 
2.993090e-004 
2.978493e-004 
2.963356e-004 
2.947702e-004 
2.931558e-004 
2.914955e-004 
2.897923e-004 
2.880500e-004 
2.862723e-004 
2.844634e-004 
2.826277e-004 
2.807699e-004 
2.788952e-004 
2.770086e-004 
2.751159e-004 
2.732226e-004 
2.713348e-004 
2.694585e-004 
2.676002e-004 
2.657661e-004 
2.639628e-004 
2.621967e-004 
2.604746e-004 
2.588028e-004 
2.571878e-004 
2.556360e-004 
2.541534e-004 
2.527460e-004 
2.514195e-004 
2.501792e-004 
2.490301e-004 
2.479769e-004 
2.470237e-004 
2.461740e-004 
2.454312e-004 
2.447977e-004 
2.442756e-004 
2.438661e-004 
2.435700e-004 
2.433874e-004 
2.433176e-004 
2.433593e-004 
2.435105e-004 
2.437686e-004 
2.441302e-004 
2.445912e-004 
2.451470e-004 
2.457925e-004 
2.465217e-004 
2.473283e-004 
2.482054e-004 
2.491457e-004 
2.501415e-004 
2.511848e-004 
2.522671e-004 
2.533799e-004 
2.545144e-004 
2.556617e-004 
2.568129e-004 
2.579591e-004 
2.590914e-004 
2.602012e-004 
2.612798e-004 
2.623190e-004 
2.633107e-004 
2.642473e-004 
2.651213e-004 
2.659259e-004 
2.666545e-004 
2.673011e-004 
2.678600e-004 
2.683265e-004 
2.686964e-004 
2.689668e-004 
1.000000e+000 
1.000000e+000 
2.949164e-004 
2.960317e-004 
2.971318e-004 
2.982167e-004 
2.992863e-004 
3.003394e-004 
3.013744e-004 
3.023891e-004 
3.033812e-004 
3.043479e-004 
3.052866e-004 
3.061946e-004 
3.070692e-004 
3.079078e-004 
3.087081e-004 
3.094678e-004 
3.101848e-004 
3.108573e-004 
3.114836e-004 
3.120621e-004 
3.125915e-004 
3.130705e-004 
3.134981e-004 
3.138733e-004 
3.141951e-004 
3.144628e-004 
3.146757e-004 
3.148331e-004 
3.149342e-004 
3.149785e-004 
3.149654e-004 
3.148943e-004 
3.147646e-004 
3.145757e-004 
3.143272e-004 
3.140184e-004 
3.136488e-004 
3.132180e-004 
3.127254e-004 
3.121707e-004 
3.115535e-004 
3.108734e-004 
3.101303e-004 
3.093241e-004 
3.084546e-004 
3.075220e-004 
3.065267e-004 
3.054688e-004 
3.043491e-004 
3.031683e-004 
3.019274e-004 
3.006276e-004 
2.992703e-004 
2.978572e-004 
2.963902e-004 
2.948715e-004 
2.933038e-004 
2.916897e-004 
2.900323e-004 
2.883351e-004 
2.866018e-004 
2.848364e-004 
2.830432e-004 
2.812268e-004 
2.793920e-004 
2.775441e-004 
2.756885e-004 
2.738309e-004 
2.719770e-004 
2.701330e-004 
2.683052e-004 
2.664998e-004 
2.647234e-004 
2.629824e-004 
2.612834e-004 
2.596330e-004 
2.580375e-004 
2.565034e-004 
2.550368e-004 
2.536436e-004 
2.523297e-004 
2.511004e-004 
2.499607e-004 
2.489155e-004 
2.479689e-004 
2.471246e-004 
2.463859e-004 
2.457555e-004 
2.452354e-004 
2.448271e-004 
2.445314e-004 
2.443485e-004 
2.442778e-004 
2.443181e-004 
2.444675e-004 
2.447235e-004 
2.450828e-004 
2.455415e-004 
2.460952e-004 
2.467386e-004 
2.474661e-004 
2.482714e-004 
2.491479e-004 
2.500884e-004 
2.510853e-004 
2.521307e-004 
2.532166e-004 
2.543345e-004 
2.554760e-004 
2.566324e-004 
2.577950e-004 
2.589553e-004 
2.601048e-004 
2.612350e-004 
2.623378e-004 
2.634052e-004 
2.644297e-004 
2.654039e-004 
2.663209e-004 
2.671744e-004 
2.679581e-004 
2.686667e-004 
2.692953e-004 
2.698396e-004 
2.702963e-004 
2.706631e-004 
1.000000e+000 
1.000000e+000 
2.934452e-004 
2.946987e-004 
2.959216e-004 
2.971145e-004 
2.982779e-004 
2.994117e-004 
3.005152e-004 
3.015874e-004 
3.026267e-004 
3.036318e-004 