# vtk DataFile Version 2.0
2D-ADE data file 
ASCII
DATASET RECTILINEAR_GRID
DIMENSIONS 128 128 1
X_COORDINATES 128 int
0 1 2 3 4 5 6 7 8 9 10 11 12 13 14 15 16 17 18 19 20 21 22 23 24 25 26 27 28 29 30 31 32 33 34 35 36 37 38 39 40 41 42 43 44 45 46 47 48 49 50 51 52 53 54 55 56 57 58 59 60 61 62 63 64 65 66 67 68 69 70 71 72 73 74 75 76 77 78 79 80 81 82 83 84 85 86 87 88 89 90 91 92 93 94 95 96 97 98 99 100 101 102 103 104 105 106 107 108 109 110 111 112 113 114 115 116 117 118 119 120 121 122 123 124 125 126 127 
Y_COORDINATES 128 int
0 1 2 3 4 5 6 7 8 9 10 11 12 13 14 15 16 17 18 19 20 21 22 23 24 25 26 27 28 29 30 31 32 33 34 35 36 37 38 39 40 41 42 43 44 45 46 47 48 49 50 51 52 53 54 55 56 57 58 59 60 61 62 63 64 65 66 67 68 69 70 71 72 73 74 75 76 77 78 79 80 81 82 83 84 85 86 87 88 89 90 91 92 93 94 95 96 97 98 99 100 101 102 103 104 105 106 107 108 109 110 111 112 113 114 115 116 117 118 119 120 121 122 123 124 125 126 127 
Z_COORDINATES 1 int
0
POINT_DATA 16384 
SCALARS density double 1
LOOKUP_TABLE default
1.000000e+000 
1.000000e+000 
1.000000e+000 
1.000000e+000 
1.000000e+000 
1.000000e+000 
1.000000e+000 
1.000000e+000 
1.000000e+000 
1.000000e+000 
1.000000e+000 
1.000000e+000 
1.000000e+000 
1.000000e+000 
1.000000e+000 
1.000000e+000 
1.000000e+000 
1.000000e+000 
1.000000e+000 
1.000000e+000 
1.000000e+000 
1.000000e+000 
1.000000e+000 
1.000000e+000 
1.000000e+000 
1.000000e+000 
1.000000e+000 
1.000000e+000 
1.000000e+000 
1.000000e+000 
1.000000e+000 
1.000000e+000 
1.000000e+000 
1.000000e+000 
1.000000e+000 
1.000000e+000 
1.000000e+000 
1.000000e+000 
1.000000e+000 
1.000000e+000 
1.000000e+000 
1.000000e+000 
1.000000e+000 
1.000000e+000 
1.000000e+000 
1.000000e+000 
1.000000e+000 
1.000000e+000 
1.000000e+000 
1.000000e+000 
1.000000e+000 
1.000000e+000 
1.000000e+000 
1.000000e+000 
1.000000e+000 
1.000000e+000 
1.000000e+000 
1.000000e+000 
1.000000e+000 
1.000000e+000 
1.000000e+000 
1.000000e+000 
1.000000e+000 
1.000000e+000 
1.000000e+000 
1.000000e+000 
1.000000e+000 
1.000000e+000 
1.000000e+000 
1.000000e+000 
1.000000e+000 
1.000000e+000 
1.000000e+000 
1.000000e+000 
1.000000e+000 
1.000000e+000 
1.000000e+000 
1.000000e+000 
1.000000e+000 
1.000000e+000 
1.000000e+000 
1.000000e+000 
1.000000e+000 
1.000000e+000 
1.000000e+000 
1.000000e+000 
1.000000e+000 
1.000000e+000 
1.000000e+000 
1.000000e+000 
1.000000e+000 
1.000000e+000 
1.000000e+000 
1.000000e+000 
1.000000e+000 
1.000000e+000 
1.000000e+000 
1.000000e+000 
1.000000e+000 
1.000000e+000 
1.000000e+000 
1.000000e+000 
1.000000e+000 
1.000000e+000 
1.000000e+000 
1.000000e+000 
1.000000e+000 
1.000000e+000 
1.000000e+000 
1.000000e+000 
1.000000e+000 
1.000000e+000 
1.000000e+000 
1.000000e+000 
1.000000e+000 
1.000000e+000 
1.000000e+000 
1.000000e+000 
1.000000e+000 
1.000000e+000 
1.000000e+000 
1.000000e+000 
1.000000e+000 
1.000000e+000 
1.000000e+000 
1.000000e+000 
1.000000e+000 
1.000000e+000 
1.000000e+000 
3.084827e-004 
3.083975e-004 
3.084828e-004 
3.088073e-004 
3.093834e-004 
3.101703e-004 
3.111275e-004 
3.122190e-004 
3.134129e-004 
3.146794e-004 
3.159927e-004 
3.173300e-004 
3.186715e-004 
3.200001e-004 
3.213011e-004 
3.225618e-004 
3.237713e-004 
3.249204e-004 
3.260015e-004 
3.270078e-004 
3.279341e-004 
3.287756e-004 
3.295287e-004 
3.301903e-004 
3.307579e-004 
3.312295e-004 
3.316037e-004 
3.318790e-004 
3.320547e-004 
3.321299e-004 
3.321041e-004 
3.319770e-004 
3.317483e-004 
3.314179e-004 
3.309858e-004 
3.304519e-004 
3.298165e-004 
3.290797e-004 
3.282417e-004 
3.273030e-004 
3.262641e-004 
3.251254e-004 
3.238877e-004 
3.225519e-004 
3.211189e-004 
3.195899e-004 
3.179664e-004 
3.162499e-004 
3.144422e-004 
3.125454e-004 
3.105620e-004 
3.084946e-004 
3.063462e-004 
3.041202e-004 
3.018201e-004 
2.994500e-004 
2.970143e-004 
2.945177e-004 
2.919654e-004 
2.893629e-004 
2.867161e-004 
2.840312e-004 
2.813148e-004 
2.785740e-004 
2.758159e-004 
2.730484e-004 
2.702791e-004 
2.675164e-004 
2.647686e-004 
2.620443e-004 
2.593523e-004 
2.567015e-004 
2.541008e-004 
2.515592e-004 
2.490857e-004 
2.466892e-004 
2.443784e-004 
2.421619e-004 
2.400480e-004 
2.380448e-004 
2.361600e-004 
2.344007e-004 
2.327738e-004 
2.312856e-004 
2.299417e-004 
2.287471e-004 
2.277062e-004 
2.268226e-004 
2.260992e-004 
2.255380e-004 
2.251402e-004 
2.249061e-004 
2.248352e-004 
2.249259e-004 
2.251758e-004 
2.255816e-004 
2.261389e-004 
2.268425e-004 
2.276861e-004 
2.286627e-004 
2.297641e-004 
2.309816e-004 
2.323051e-004 
2.337241e-004 
2.352270e-004 
2.368016e-004 
2.384346e-004 
2.401122e-004 
2.418197e-004 
2.435419e-004 
2.452626e-004 
2.469650e-004 
2.486317e-004 
2.502446e-004 
2.517848e-004 
2.532329e-004 
2.545691e-004 
2.557728e-004 
2.568237e-004 
2.577016e-004 
2.583883e-004 
2.588674e-004 
2.591267e-004 
2.591674e-004 
2.590645e-004 
2.589165e-004 
1.000000e+000 
1.000000e+000 
3.085676e-004 
3.084824e-004 
3.085830e-004 
3.088989e-004 
3.094141e-004 
3.101117e-004 
3.109640e-004 
3.119417e-004 
3.130165e-004 
3.141626e-004 
3.153567e-004 
3.165778e-004 
3.178075e-004 
3.190297e-004 
3.202301e-004 
3.213965e-004 
3.225183e-004 
3.235864e-004 
3.245929e-004 
3.255313e-004 
3.263960e-004 
3.271822e-004 
3.278860e-004 
3.285042e-004 
3.290341e-004 
3.294734e-004 
3.298205e-004 
3.300738e-004 
3.302322e-004 
3.302948e-004 
3.302610e-004 
3.301303e-004 
3.299022e-004 
3.295766e-004 
3.291532e-004 
3.286321e-004 
3.280134e-004 
3.272971e-004 
3.264836e-004 
3.255731e-004 
3.245661e-004 
3.234632e-004 
3.222650e-004 
3.209725e-004 
3.195865e-004 
3.181084e-004 
3.165394e-004 
3.148812e-004 
3.131355e-004 
3.113046e-004 
3.093906e-004 
3.073962e-004 
3.053244e-004 
3.031785e-004 
3.009619e-004 
2.986785e-004 
2.963328e-004 
2.939292e-004 
2.914727e-004 
2.889687e-004 
2.864228e-004 
2.838411e-004 
2.812299e-004 
2.785959e-004 
2.759462e-004 
2.732880e-004 
2.706289e-004 
2.679768e-004 
2.653396e-004 
2.627256e-004 
2.601431e-004 
2.576007e-004 
2.551068e-004 
2.526700e-004 
2.502988e-004 
2.480017e-004 
2.457870e-004 
2.436627e-004 
2.416369e-004 
2.397170e-004 
2.379104e-004 
2.362239e-004 
2.346639e-004 
2.332362e-004 
2.319462e-004 
2.307986e-004 
2.297974e-004 
2.289460e-004 
2.282470e-004 
2.277022e-004 
2.273126e-004 
2.270786e-004 
2.269993e-004 
2.270732e-004 
2.272980e-004 
2.276703e-004 
2.281859e-004 
2.288396e-004 
2.296254e-004 
2.305365e-004 
2.315651e-004 
2.327026e-004 
2.339395e-004 
2.352655e-004 
2.366697e-004 
2.381402e-004 
2.396646e-004 
2.412294e-004 
2.428210e-004 
2.444245e-004 
2.460250e-004 
2.476064e-004 
2.491526e-004 
2.506465e-004 
2.520707e-004 
2.534076e-004 
2.546391e-004 
2.557472e-004 
2.567143e-004 
2.575236e-004 
2.581601e-004 
2.586130e-004 
2.588797e-004 
2.589706e-004 
2.589167e-004 
2.587688e-004 
1.000000e+000 
1.000000e+000 
3.084822e-004 
3.083815e-004 
3.084823e-004 
3.087852e-004 
3.092622e-004 
3.099010e-004 
3.106781e-004 
3.115691e-004 
3.125502e-004 
3.135988e-004 
3.146942e-004 
3.158174e-004 
3.169514e-004 
3.180811e-004 
3.191931e-004 
3.202758e-004 
3.213190e-004 
3.223137e-004 
3.232524e-004 
3.241285e-004 
3.249363e-004 
3.256712e-004 
3.263291e-004 
3.269066e-004 
3.274010e-004 
3.278098e-004 
3.281312e-004 
3.283637e-004 
3.285058e-004 
3.285566e-004 
3.285153e-004 
3.283813e-004 
3.281541e-004 
3.278334e-004 
3.274189e-004 
3.269105e-004 
3.263083e-004 
3.256124e-004 
3.248229e-004 
3.239402e-004 
3.229646e-004 
3.218967e-004 
3.207373e-004 
3.194870e-004 
3.181470e-004 
3.167183e-004 
3.152023e-004 
3.136005e-004 
3.119149e-004 
3.101473e-004 
3.083001e-004 
3.063759e-004 
3.043774e-004 
3.023080e-004 
3.001710e-004 
2.979702e-004 
2.957098e-004 
2.933943e-004 
2.910283e-004 
2.886171e-004 
2.861662e-004 
2.836814e-004 
2.811687e-004 
2.786346e-004 
2.760859e-004 
2.735296e-004 
2.709729e-004 
2.684234e-004 
2.658887e-004 
2.633767e-004 
2.608954e-004 
2.584528e-004 
2.560573e-004 
2.537168e-004 
2.514396e-004 
2.492336e-004 
2.471069e-004 
2.450671e-004 
2.431218e-004 
2.412781e-004 
2.395430e-004 
2.379229e-004 
2.364239e-004 
2.350515e-004 
2.338108e-004 
2.327061e-004 
2.317413e-004 
2.309194e-004 
2.302430e-004 
2.297135e-004 
2.293321e-004 
2.290986e-004 
2.290125e-004 
2.290721e-004 
2.292750e-004 
2.296179e-004 
2.300968e-004 
2.307065e-004 
2.314414e-004 
2.322947e-004 
2.332589e-004 
2.343257e-004 
2.354860e-004 
2.367300e-004 
2.380471e-004 
2.394260e-004 
2.408547e-004 
2.423206e-004 
2.438105e-004 
2.453105e-004 
2.468063e-004 
2.482830e-004 
2.497253e-004 
2.511173e-004 
2.524432e-004 
2.536866e-004 
2.548313e-004 
2.558612e-004 
2.567609e-004 
2.575162e-004 
2.581148e-004 
2.585477e-004 
2.588123e-004 
2.589173e-004 
2.588627e-004 
2.586654e-004 
1.000000e+000 
1.000000e+000 
3.081566e-004 
3.080644e-004 
3.081793e-004 
3.084834e-004 
3.089462e-004 
3.095515e-004 
3.102783e-004 
3.111072e-004 
3.120177e-004 
3.129900e-004 
3.140058e-004 
3.150482e-004 
3.161016e-004 
3.171522e-004 
3.181876e-004 
3.191969e-004 
3.201703e-004 
3.210994e-004 
3.219768e-004 
3.227962e-004 
3.235521e-004 
3.242397e-004 
3.248551e-004 
3.253948e-004 
3.258561e-004 
3.262364e-004 
3.265338e-004 
3.267466e-004 
3.268735e-004 
3.269134e-004 
3.268653e-004 
3.267285e-004 
3.265026e-004 
3.261870e-004 
3.257814e-004 
3.252859e-004 
3.247001e-004 
3.240243e-004 
3.232586e-004 
3.224032e-004 
3.214585e-004 
3.204251e-004 
3.193035e-004 
3.180945e-004 
3.167992e-004 
3.154186e-004 
3.139540e-004 
3.124069e-004 
3.107792e-004 
3.090727e-004 
3.072898e-004 
3.054328e-004 
3.035045e-004 
3.015081e-004 
2.994469e-004 
2.973246e-004 
2.951451e-004 
2.929127e-004 
2.906322e-004 
2.883084e-004 
2.859466e-004 
2.835525e-004 
2.811319e-004 
2.786910e-004 
2.762363e-004 
2.737746e-004 
2.713129e-004 
2.688583e-004 
2.664182e-004 
2.640002e-004 
2.616119e-004 
2.592612e-004 
2.569558e-004 
2.547036e-004 
2.525123e-004 
2.503896e-004 
2.483432e-004 
2.463803e-004 
2.445083e-004 
2.427339e-004 
2.410638e-004 
2.395040e-004 
2.380605e-004 
2.367383e-004 
2.355424e-004 
2.344768e-004 
2.335451e-004 
2.327504e-004 
2.320947e-004 
2.315797e-004 
2.312060e-004 
2.309738e-004 
2.308823e-004 
2.309297e-004 
2.311139e-004 
2.314314e-004 
2.318784e-004 
2.324499e-004 
2.331403e-004 
2.339431e-004 
2.348510e-004 
2.358561e-004 
2.369496e-004 
2.381220e-004 
2.393631e-004 
2.406622e-004 
2.420079e-004 
2.433879e-004 
2.447899e-004 
2.462007e-004 
2.476067e-004 
2.489939e-004 
2.503481e-004 
2.516545e-004 
2.528984e-004 
2.540648e-004 
2.551391e-004 
2.561068e-004 
2.569542e-004 
2.576686e-004 
2.582393e-004 
2.586587e-004 
2.589205e-004 
2.590239e-004 
2.589526e-004 
2.587036e-004 
1.000000e+000 
1.000000e+000 
3.075768e-004 
3.075458e-004 
3.077010e-004 
3.080228e-004 
3.084881e-004 
3.090790e-004 
3.097769e-004 
3.105646e-004 
3.114242e-004 
3.123388e-004 
3.132921e-004 
3.142692e-004 
3.152561e-004 
3.162402e-004 
3.172102e-004 
3.181558e-004 
3.190681e-004 
3.199392e-004 
3.207619e-004 
3.215303e-004 
3.222391e-004 
3.228837e-004 
3.234601e-004 
3.239651e-004 
3.243959e-004 
3.247498e-004 
3.250251e-004 
3.252199e-004 
3.253328e-004 
3.253627e-004 
3.253086e-004 
3.251697e-004 
3.249455e-004 
3.246354e-004 
3.242391e-004 
3.237564e-004 
3.231872e-004 
3.225314e-004 
3.217892e-004 
3.209608e-004 
3.200465e-004 
3.190468e-004 
3.179622e-004 
3.167936e-004 
3.155419e-004 
3.142080e-004 
3.127933e-004 
3.112992e-004 
3.097274e-004 
3.080797e-004 
3.063585e-004 
3.045660e-004 
3.027049e-004 
3.007781e-004 
2.987890e-004 
2.967411e-004 
2.946382e-004 
2.924844e-004 
2.902843e-004 
2.880426e-004 
2.857645e-004 
2.834552e-004 
2.811205e-004 
2.787664e-004 
2.763991e-004 
2.740252e-004 
2.716512e-004 
2.692842e-004 
2.669313e-004 
2.645997e-004 
2.622969e-004 
2.600303e-004 
2.578074e-004 
2.556357e-004 
2.535227e-004 
2.514759e-004 
2.495024e-004 
2.476095e-004 
2.458039e-004 
2.440924e-004 
2.424811e-004 
2.409760e-004 
2.395826e-004 
2.383060e-004 
2.371506e-004 
2.361205e-004 
2.352190e-004 
2.344490e-004 
2.338125e-004 
2.333109e-004 
2.329449e-004 
2.327145e-004 
2.326189e-004 
2.326564e-004 
2.328247e-004 
2.331207e-004 
2.335403e-004 
2.340789e-004 
2.347309e-004 
2.354901e-004 
2.363494e-004 
2.373012e-004 
2.383369e-004 
2.394475e-004 
2.406232e-004 
2.418536e-004 
2.431278e-004 
2.444344e-004 
2.457613e-004 
2.470962e-004 
2.484262e-004 
2.497382e-004 
2.510187e-004 
2.522542e-004 
2.534310e-004 
2.545353e-004 
2.555537e-004 
2.564730e-004 
2.572809e-004 
2.579659e-004 
2.585176e-004 
2.589277e-004 
2.591873e-004 
2.592893e-004 
2.592165e-004 
2.589568e-004 
1.000000e+000 
1.000000e+000 
3.067812e-004 
3.068409e-004 
3.070582e-004 
3.074185e-004 
3.079043e-004 
3.084989e-004 
3.091861e-004 
3.099504e-004 
3.107766e-004 
3.116499e-004 
3.125562e-004 
3.134822e-004 
3.144155e-004 
3.153447e-004 
3.162597e-004 
3.171511e-004 
3.180107e-004 
3.188309e-004 
3.196055e-004 
3.203285e-004 
3.209951e-004 
3.216009e-004 
3.221421e-004 
3.226156e-004 
3.230185e-004 
3.233484e-004 
3.236035e-004 
3.237819e-004 
3.238822e-004 
3.239033e-004 
3.238442e-004 
3.237040e-004 
3.234821e-004 
3.231780e-004 
3.227912e-004 
3.223216e-004 
3.217689e-004 
3.211331e-004 
3.204142e-004 
3.196125e-004 
3.187281e-004 
3.177616e-004 
3.167134e-004 
3.155842e-004 
3.143749e-004 
3.130865e-004 
3.117201e-004 
3.102773e-004 
3.087594e-004 
3.071685e-004 
3.055065e-004 
3.037757e-004 
3.019788e-004 
3.001185e-004 
2.981979e-004 
2.962205e-004 
2.941900e-004 
2.921104e-004 
2.899860e-004 
2.878214e-004 
2.856215e-004 
2.833914e-004 
2.811368e-004 
2.788633e-004 
2.765770e-004 
2.742842e-004 
2.719912e-004 
2.697049e-004 
2.674320e-004 
2.651797e-004 
2.629549e-004 
2.607651e-004 
2.586173e-004 
2.565188e-004 
2.544770e-004 
2.524988e-004 
2.505915e-004 
2.487617e-004 
2.470161e-004 
2.453612e-004 
2.438029e-004 
2.423470e-004 
2.409988e-004 
2.397631e-004 
2.386443e-004 
2.376462e-004 
2.367721e-004 
2.360245e-004 
2.354055e-004 
2.349165e-004 
2.345579e-004 
2.343299e-004 
2.342314e-004 
2.342609e-004 
2.344161e-004 
2.346939e-004 
2.350905e-004 
2.356011e-004 
2.362205e-004 
2.369426e-004 
2.377605e-004 
2.386668e-004 
2.396534e-004 
2.407114e-004 
2.418314e-004 
2.430037e-004 
2.442175e-004 
2.454621e-004 
2.467260e-004 
2.479974e-004 
2.492643e-004 
2.505143e-004 
2.517347e-004 
2.529129e-004 
2.540362e-004 
2.550919e-004 
2.560676e-004 
2.569513e-004 
2.577315e-004 
2.583975e-004 
2.589392e-004 
2.593473e-004 
2.596119e-004 
2.597225e-004 
2.596644e-004 
2.594254e-004 
1.000000e+000 
1.000000e+000 
3.058080e-004 
3.059757e-004 
3.062731e-004 
3.066900e-004 
3.072123e-004 
3.078262e-004 
3.085182e-004 
3.092748e-004 
3.100827e-004 
3.109293e-004 
3.118022e-004 
3.126898e-004 
3.135812e-004 
3.144664e-004 
3.153362e-004 
3.161821e-004 
3.169968e-004 
3.177734e-004 
3.185059e-004 
3.191892e-004 
3.198184e-004 
3.203897e-004 
3.208994e-004 
3.213445e-004 
3.217224e-004 
3.220308e-004 
3.222677e-004 
3.224315e-004 
3.225209e-004 
3.225345e-004 
3.224714e-004 
3.223308e-004 
3.221119e-004 
3.218143e-004 
3.214376e-004 
3.209813e-004 
3.204453e-004 
3.198295e-004 
3.191338e-004 
3.183585e-004 
3.175037e-004 
3.165698e-004 
3.155572e-004 
3.144666e-004 
3.132987e-004 
3.120545e-004 
3.107351e-004 
3.093418e-004 
3.078761e-004 
3.063397e-004 
3.047346e-004 
3.030630e-004 
3.013273e-004 
2.995302e-004 
2.976748e-004 
2.957643e-004 
2.938022e-004 
2.917924e-004 
2.897391e-004 
2.876467e-004 
2.855199e-004 
2.833638e-004 
2.811835e-004 
2.789848e-004 
2.767733e-004 
2.745553e-004 
2.723368e-004 
2.701245e-004 
2.679249e-004 
2.657449e-004 
2.635913e-004 
2.614712e-004 
2.593915e-004 
2.573593e-004 
2.553817e-004 
2.534655e-004 
2.516175e-004 
2.498445e-004 
2.481528e-004 
2.465486e-004 
2.450378e-004 
2.436259e-004 
2.423180e-004 
2.411189e-004 
2.400328e-004 
2.390634e-004 
2.382137e-004 
2.374865e-004 
2.368834e-004 
2.364059e-004 
2.360545e-004 
2.358291e-004 
2.357289e-004 
2.357522e-004 
2.358968e-004 
2.361597e-004 
2.365370e-004 
2.370244e-004 
2.376165e-004 
2.383075e-004 
2.390907e-004 
2.399589e-004 
2.409043e-004 
2.419184e-004 
2.429920e-004 
2.441158e-004 
2.452796e-004 
2.464730e-004 
2.476851e-004 
2.489047e-004 
2.501205e-004 
2.513206e-004 
2.524934e-004 
2.536268e-004 
2.547092e-004 
2.557286e-004 
2.566738e-004 
2.575334e-004 
2.582968e-004 
2.589538e-004 
2.594945e-004 
2.599094e-004 
2.601884e-004 
2.603210e-004 
2.602938e-004 
2.600969e-004 
1.000000e+000 
1.000000e+000 
3.046905e-004 
3.049776e-004 
3.053687e-004 
3.058560e-004 
3.064286e-004 
3.070757e-004 
3.077861e-004 
3.085483e-004 
3.093511e-004 
3.101836e-004 
3.110352e-004 
3.118959e-004 
3.127561e-004 
3.136071e-004 
3.144407e-004 
3.152495e-004 
3.160267e-004 
3.167663e-004 
3.174628e-004 
3.181116e-004 
3.187084e-004 
3.192493e-004 
3.197313e-004 
3.201514e-004 
3.205071e-004 
3.207964e-004 
3.210175e-004 
3.211686e-004 
3.212485e-004 
3.212560e-004 
3.211902e-004 
3.210501e-004 
3.208352e-004 
3.205449e-004 
3.201786e-004 
3.197360e-004 
3.192170e-004 
3.186213e-004 
3.179488e-004 
3.171997e-004 
3.163741e-004 
3.154723e-004 
3.144947e-004 
3.134418e-004 
3.123144e-004 
3.111133e-004 
3.098394e-004 
3.084941e-004 
3.070787e-004 
3.055948e-004 
3.040443e-004 
3.024293e-004 
3.007521e-004 
2.990152e-004 
2.972216e-004 
2.953744e-004 
2.934769e-004 
2.915329e-004 
2.895463e-004 
2.875214e-004 
2.854628e-004 
2.833754e-004 
2.812641e-004 
2.791345e-004 
2.769920e-004 
2.748427e-004 
2.726926e-004 
2.705479e-004 
2.684151e-004 
2.663008e-004 
2.642117e-004 
2.621546e-004 
2.601364e-004 
2.581639e-004 
2.562438e-004 
2.543831e-004 
2.525882e-004 
2.508658e-004 
2.492219e-004 
2.476628e-004 
2.461941e-004 
2.448212e-004 
2.435491e-004 
2.423824e-004 
2.413252e-004 
2.403812e-004 
2.395533e-004 
2.388441e-004 
2.382554e-004 
2.377884e-004 
2.374437e-004 
2.372213e-004 
2.371201e-004 
2.371388e-004 
2.372751e-004 
2.375259e-004 
2.378877e-004 
2.383560e-004 
2.389257e-004 
2.395912e-004 
2.403459e-004 
2.411829e-004 
2.420946e-004 
2.430727e-004 
2.441086e-004 
2.451930e-004 
2.463163e-004 
2.474686e-004 
2.486394e-004 
2.498180e-004 
2.509937e-004 
2.521554e-004 
2.532920e-004 
2.543923e-004 
2.554452e-004 
2.564399e-004 
2.573656e-004 
2.582119e-004 
2.589687e-004 
2.596265e-004 
2.601756e-004 
2.606069e-004 
2.609106e-004 
2.610773e-004 
2.610950e-004 
2.609557e-004 
1.000000e+000 
1.000000e+000 
3.034590e-004 
3.038736e-004 
3.043679e-004 
3.049361e-004 
3.055703e-004 
3.062622e-004 
3.070025e-004 
3.077818e-004 
3.085909e-004 
3.094205e-004 
3.102615e-004 
3.111054e-004 
3.119441e-004 
3.127697e-004 
3.135754e-004 
3.143546e-004 
3.151013e-004 
3.158103e-004 
3.164766e-004 
3.170961e-004 
3.176650e-004 
3.181798e-004 
3.186377e-004 
3.190361e-004 
3.193726e-004 
3.196454e-004 
3.198528e-004 
3.199932e-004 
3.200655e-004 
3.200684e-004 
3.200011e-004 
3.198628e-004 
3.196527e-004 
3.193704e-004 
3.190152e-004 
3.185869e-004 
3.180851e-004 
3.175096e-004 
3.168604e-004 
3.161374e-004 
3.153408e-004 
3.144707e-004 
3.135275e-004 
3.125116e-004 
3.114237e-004 
3.102645e-004 
3.090349e-004 
3.077360e-004 
3.063692e-004 
3.049359e-004 
3.034378e-004 
3.018770e-004 
3.002556e-004 
2.985760e-004 
2.968411e-004 
2.950537e-004 
2.932171e-004 
2.913348e-004 
2.894107e-004 
2.874490e-004 
2.854539e-004 
2.834301e-004 
2.813827e-004 
2.793167e-004 
2.772377e-004 
2.751514e-004 
2.730635e-004 
2.709804e-004 
2.689082e-004 
2.668533e-004 
2.648224e-004 
2.628219e-004 
2.608587e-004 
2.589394e-004 
2.570707e-004 
2.552592e-004 
2.535113e-004 
2.518335e-004 
2.502319e-004 
2.487124e-004 
2.472806e-004 
2.459418e-004 
2.447009e-004 
2.435625e-004 
2.425306e-004 
2.416088e-004 
2.407999e-004 
2.401065e-004 
2.395305e-004 
2.390730e-004 
2.387345e-004 
2.385150e-004 
2.384137e-004 
2.384291e-004 
2.385589e-004 
2.388003e-004 
2.391497e-004 
2.396028e-004 
2.401547e-004 
2.407998e-004 
2.415318e-004 
2.423439e-004 
2.432287e-004 
2.441784e-004 
2.451844e-004 
2.462380e-004 
2.473297e-004 
2.484502e-004 
2.495893e-004 
2.507371e-004 
2.518830e-004 
2.530168e-004 
2.541278e-004 
2.552057e-004 
2.562399e-004 
2.572203e-004 
2.581368e-004 
2.589798e-004 
2.597398e-004 
2.604076e-004 
2.609743e-004 
2.614313e-004 
2.617697e-004 
2.619809e-004 
2.620552e-004 
2.619857e-004 
1.000000e+000 
1.000000e+000 
3.021414e-004 
3.026884e-004 
3.032925e-004 
3.039496e-004 
3.046545e-004 
3.054004e-004 
3.061803e-004 
3.069867e-004 
3.078118e-004 
3.086481e-004 
3.094879e-004 
3.103240e-004 
3.111496e-004 
3.119580e-004 
3.127433e-004 
3.134999e-004 
3.142226e-004 
3.149069e-004 
3.155485e-004 
3.161436e-004 
3.166891e-004 
3.171818e-004 
3.176193e-004 
3.179992e-004 
3.183195e-004 
3.185784e-004 
3.187744e-004 
3.189062e-004 
3.189727e-004 
3.189726e-004 
3.189053e-004 
3.187699e-004 
3.185657e-004 
3.182922e-004 
3.179489e-004 
3.175353e-004 
3.170512e-004 
3.164962e-004 
3.158704e-004 
3.151735e-004 
3.144056e-004 
3.135669e-004 
3.126576e-004 
3.116780e-004 
3.106288e-004 
3.095104e-004 
3.083238e-004 
3.070700e-004 
3.057501e-004 
3.043655e-004 
3.029178e-004 
3.014089e-004 
2.998407e-004 
2.982157e-004 
2.965363e-004 
2.948054e-004 
2.930261e-004 
2.912019e-004 
2.893363e-004 
2.874333e-004 
2.854972e-004 
2.835324e-004 
2.815438e-004 
2.795364e-004 
2.775154e-004 
2.754865e-004 
2.734553e-004 
2.714279e-004 
2.694103e-004 
2.674088e-004 
2.654298e-004 
2.634799e-004 
2.615656e-004 
2.596934e-004 
2.578699e-004 
2.561016e-004 
2.543949e-004 
2.527560e-004 
2.511911e-004 
2.497059e-004 
2.483060e-004 
2.469966e-004 
2.457826e-004 
2.446684e-004 
2.436582e-004 
2.427552e-004 
2.419627e-004 
2.412829e-004 
2.407177e-004 
2.402684e-004 
2.399355e-004 
2.397189e-004 
2.396178e-004 
2.396309e-004 
2.397560e-004 
2.399902e-004 
2.403301e-004 
2.407716e-004 
2.413097e-004 
2.419390e-004 
2.426535e-004 
2.434465e-004 
2.443109e-004 
2.452390e-004 
2.462225e-004 
2.472530e-004 
2.483216e-004 
2.494188e-004 
2.505354e-004 
2.516615e-004 
2.527873e-004 
2.539029e-004 
2.549982e-004 
2.560635e-004 
2.570889e-004 
2.580648e-004 
2.589818e-004 
2.598308e-004 
2.606029e-004 
2.612897e-004 
2.618828e-004 
2.623742e-004 
2.627560e-004 
2.630208e-004 
2.631608e-004 
2.631701e-004 
1.000000e+000 
1.000000e+000 
3.007630e-004 
3.014448e-004 
3.021631e-004 
3.029152e-004 
3.036974e-004 
3.045051e-004 
3.053326e-004 
3.061742e-004 
3.070237e-004 
3.078749e-004 
3.087216e-004 
3.095579e-004 
3.103779e-004 
3.111764e-004 
3.119482e-004 
3.126886e-004 
3.133933e-004 
3.140584e-004 
3.146803e-004 
3.152558e-004 
3.157822e-004 
3.162568e-004 
3.166774e-004 
3.170420e-004 
3.173489e-004 
3.175966e-004 
3.177837e-004 
3.179090e-004 
3.179715e-004 
3.179701e-004 
3.179042e-004 
3.177730e-004 
3.175759e-004 
3.173122e-004 
3.169815e-004 
3.165833e-004 
3.161174e-004 
3.155833e-004 
3.149810e-004 
3.143102e-004 
3.135710e-004 
3.127634e-004 
3.118876e-004 
3.109437e-004 
3.099323e-004 
3.088539e-004 
3.077092e-004 
3.064990e-004 
3.052245e-004 
3.038868e-004 
3.024875e-004 
3.010283e-004 
2.995109e-004 
2.979377e-004 
2.963110e-004 
2.946335e-004 
2.929082e-004 
2.911383e-004 
2.893273e-004 
2.874790e-004 
2.855976e-004 
2.836872e-004 
2.817527e-004 
2.797988e-004 
2.778308e-004 
2.758539e-004 
2.738739e-004 
2.718966e-004 
2.699279e-004 
2.679739e-004 
2.660411e-004 
2.641358e-004 
2.622644e-004 
2.604334e-004 
2.586492e-004 
2.569184e-004 
2.552471e-004 
2.536417e-004 
2.521081e-004 
2.506520e-004 
2.492791e-004 
2.479944e-004 
2.468029e-004 
2.457091e-004 
2.447168e-004 
2.438296e-004 
2.430505e-004 
2.423819e-004 
2.418258e-004 
2.413833e-004 
2.410550e-004 
2.408410e-004 
2.407404e-004 
2.407520e-004 
2.408737e-004 
2.411027e-004 
2.414356e-004 
2.418684e-004 
2.423964e-004 
2.430143e-004 
2.437160e-004 
2.444953e-004 
2.453450e-004 
2.462578e-004 
2.472257e-004 
2.482404e-004 
2.492933e-004 
2.503755e-004 
2.514778e-004 
2.525909e-004 
2.537054e-004 
2.548118e-004 
2.559006e-004 
2.569625e-004 
2.579882e-004 
2.589686e-004 
2.598949e-004 
2.607586e-004 
2.615514e-004 
2.622653e-004 
2.628928e-004 
2.634266e-004 
2.638597e-004 
2.641856e-004 
2.643982e-004 
2.644928e-004 
1.000000e+000 
1.000000e+000 
2.993462e-004 
3.001640e-004 
3.009992e-004 
3.018503e-004 
3.027152e-004 
3.035905e-004 
3.044721e-004 
3.053558e-004 
3.062366e-004 
3.071098e-004 
3.079705e-004 
3.088138e-004 
3.096351e-004 
3.104300e-004 
3.111944e-004 
3.119245e-004 
3.126167e-004 
3.132677e-004 
3.138747e-004 
3.144351e-004 
3.149464e-004 
3.154066e-004 
3.158138e-004 
3.161663e-004 
3.164628e-004 
3.167019e-004 
3.168824e-004 
3.170033e-004 
3.170638e-004 
3.170629e-004 
3.170000e-004 
3.168743e-004 
3.166854e-004 
3.164325e-004 
3.161153e-004 
3.157333e-004 
3.152861e-004 
3.147734e-004 
3.141949e-004 
3.135504e-004 
3.128399e-004 
3.120632e-004 
3.112204e-004 
3.103118e-004 
3.093375e-004 
3.082982e-004 
3.071943e-004 
3.060265e-004 
3.047959e-004 
3.035036e-004 
3.021508e-004 
3.007390e-004 
2.992702e-004 
2.977463e-004 
2.961695e-004 
2.945424e-004 
2.928678e-004 
2.911488e-004 
2.893887e-004 
2.875912e-004 
2.857602e-004 
2.838999e-004 
2.820149e-004 
2.801098e-004 
2.781897e-004 
2.762599e-004 
2.743258e-004 
2.723931e-004 
2.704678e-004 
2.685559e-004 
2.666635e-004 
2.647971e-004 
2.629629e-004 
2.611673e-004 
2.594168e-004 
2.577178e-004 
2.560765e-004 
2.544990e-004 
2.529915e-004 
2.515595e-004 
2.502087e-004 
2.489442e-004 
2.477710e-004 
2.466933e-004 
2.457154e-004 
2.448407e-004 
2.440722e-004 
2.434124e-004 
2.428632e-004 
2.424260e-004 
2.421013e-004 
2.418893e-004 
2.417893e-004 
2.417999e-004 
2.419192e-004 
2.421445e-004 
2.424726e-004 
2.428995e-004 
2.434206e-004 
2.440307e-004 
2.447240e-004 
2.454943e-004 
2.463347e-004 
2.472380e-004 
2.481965e-004 
2.492020e-004 
2.502464e-004 
2.513208e-004 
2.524166e-004 
2.535247e-004 
2.546361e-004 
2.557417e-004 
2.568324e-004 
2.578994e-004 
2.589339e-004 
2.599272e-004 
2.608711e-004 
2.617575e-004 
2.625788e-004 
2.633275e-004 
2.639968e-004 
2.645799e-004 
2.650708e-004 
2.654641e-004 
2.657547e-004 
2.659390e-004 
1.000000e+000 
1.000000e+000 
2.979115e-004 
2.988651e-004 
2.998188e-004 
3.007718e-004 
3.017231e-004 
3.026705e-004 
3.036115e-004 
3.045428e-004 
3.054608e-004 
3.063620e-004 
3.072426e-004 
3.080989e-004 
3.089273e-004 
3.097245e-004 
3.104870e-004 
3.112120e-004 
3.118966e-004 
3.125384e-004 
3.131350e-004 
3.136843e-004 
3.141844e-004 
3.146338e-004 
3.150310e-004 
3.153745e-004 
3.156634e-004 
3.158964e-004 
3.160727e-004 
3.161915e-004 
3.162519e-004 
3.162533e-004 
3.161949e-004 
3.160763e-004 
3.158968e-004 
3.156560e-004 
3.153533e-004 
3.149882e-004 
3.145604e-004 
3.140695e-004 
3.135152e-004 
3.128972e-004 
3.122153e-004 
3.114695e-004 
3.106595e-004 
3.097857e-004 
3.088481e-004 
3.078470e-004 
3.067829e-004 
3.056564e-004 
3.044684e-004 
3.032198e-004 
3.019117e-004 
3.005456e-004 
2.991230e-004 
2.976460e-004 
2.961164e-004 
2.945369e-004 
2.929099e-004 
2.912385e-004 
2.895257e-004 
2.877753e-004 
2.859908e-004 
2.841765e-004 
2.823365e-004 
2.804757e-004 
2.785988e-004 
2.767111e-004 
2.748178e-004 
2.729247e-004 
2.710374e-004 
2.691621e-004 
2.673047e-004 
2.654716e-004 
2.636690e-004 
2.619034e-004 
2.601810e-004 
2.585083e-004 
2.568915e-004 
2.553368e-004 
2.538501e-004 
2.524373e-004 
2.511038e-004 
2.498550e-004 
2.486956e-004 
2.476302e-004 
2.466629e-004 
2.457973e-004 
2.450364e-004 
2.443828e-004 
2.438385e-004 
2.434048e-004 
2.430825e-004 
2.428717e-004 
2.427718e-004 
2.427816e-004 
2.428993e-004 
2.431222e-004 
2.434472e-004 
2.438704e-004 
2.443874e-004 
2.449931e-004 
2.456818e-004 
2.464475e-004 
2.472834e-004 
2.481825e-004 
2.491372e-004 
2.501398e-004 
2.511820e-004 
2.522556e-004 
2.533520e-004 
2.544624e-004 
2.555783e-004 
2.566908e-004 
2.577913e-004 
2.588713e-004 
2.599224e-004 
2.609364e-004 
2.619055e-004 
2.628221e-004 
2.636790e-004 
2.644695e-004 
2.651870e-004 
2.658257e-004 
2.663802e-004 
2.668458e-004 
2.672185e-004 
2.674954e-004 
1.000000e+000 
1.000000e+000 
2.964773e-004 
2.975660e-004 
2.986387e-004 
2.996952e-004 
3.007356e-004 
3.017588e-004 
3.027630e-004 
3.037464e-004 
3.047065e-004 
3.056407e-004 
3.065463e-004 
3.074208e-004 
3.082615e-004 
3.090658e-004 
3.098314e-004 
3.105560e-004 
3.112377e-004 
3.118745e-004 
3.124647e-004 
3.130069e-004 
3.134996e-004 
3.139416e-004 
3.143319e-004 
3.146694e-004 
3.149534e-004 
3.151830e-004 
3.153575e-004 
3.154763e-004 
3.155386e-004 
3.155441e-004 
3.154920e-004 
3.153819e-004 
3.152133e-004 
3.149856e-004 
3.146984e-004 
3.143512e-004 
3.139435e-004 
3.134751e-004 
3.129454e-004 
3.123542e-004 
3.117011e-004 
3.109861e-004 
3.102089e-004 
3.093694e-004 
3.084679e-004 
3.075044e-004 
3.064793e-004 
3.053931e-004 
3.042464e-004 
3.030400e-004 
3.017750e-004 
3.004526e-004 
2.990744e-004 
2.976419e-004 
2.961571e-004 
2.946224e-004 
2.930401e-004 
2.914131e-004 
2.897444e-004 
2.880373e-004 
2.862956e-004 
2.845232e-004 
2.827242e-004 
2.809032e-004 
2.790650e-004 
2.772146e-004 
2.753573e-004 
2.734987e-004 
2.716444e-004 
2.698004e-004 
2.679727e-004 
2.661675e-004 
2.643912e-004 
2.626500e-004 
2.609504e-004 
2.592987e-004 
2.577011e-004 
2.561639e-004 
2.546930e-004 
2.532943e-004 
2.519735e-004 
2.507356e-004 
2.495859e-004 
2.485287e-004 
2.475683e-004 
2.467083e-004 
2.459519e-004 
2.453017e-004 
2.447599e-004 
2.443278e-004 
2.440063e-004 
2.437957e-004 
2.436953e-004 
2.437043e-004 
2.438207e-004 
2.440420e-004 
2.443653e-004 
2.447868e-004 
2.453021e-004 
2.459062e-004 
2.465937e-004 
2.473586e-004 
2.481943e-004 
2.490939e-004 
2.500501e-004 
2.510552e-004 
2.521014e-004 
2.531803e-004 
2.542838e-004 
2.554035e-004 
2.565308e-004 
2.576574e-004 
2.587750e-004 
2.598752e-004 
2.609502e-004 
2.619921e-004 
2.629934e-004 
2.639471e-004 
2.648464e-004 
2.656848e-004 
2.664565e-004 
2.671562e-004 
2.677790e-004 
2.683210e-004 
2.687789e-004 
2.691504e-004 
1.000000e+000 
1.000000e+000 
2.950604e-004 
2.962830e-004 
2.974745e-004 
2.986355e-004 
2.997668e-004 
3.008681e-004 
3.019388e-004 
3.029778e-004 
3.039838e-004 
3.049551e-004 