# vtk DataFile Version 2.0
2D-ADE data file 
ASCII
DATASET RECTILINEAR_GRID
DIMENSIONS 128 128 1
X_COORDINATES 128 int
0 1 2 3 4 5 6 7 8 9 10 11 12 13 14 15 16 17 18 19 20 21 22 23 24 25 26 27 28 29 30 31 32 33 34 35 36 37 38 39 40 41 42 43 44 45 46 47 48 49 50 51 52 53 54 55 56 57 58 59 60 61 62 63 64 65 66 67 68 69 70 71 72 73 74 75 76 77 78 79 80 81 82 83 84 85 86 87 88 89 90 91 92 93 94 95 96 97 98 99 100 101 102 103 104 105 106 107 108 109 110 111 112 113 114 115 116 117 118 119 120 121 122 123 124 125 126 127 
Y_COORDINATES 128 int
0 1 2 3 4 5 6 7 8 9 10 11 12 13 14 15 16 17 18 19 20 21 22 23 24 25 26 27 28 29 30 31 32 33 34 35 36 37 38 39 40 41 42 43 44 45 46 47 48 49 50 51 52 53 54 55 56 57 58 59 60 61 62 63 64 65 66 67 68 69 70 71 72 73 74 75 76 77 78 79 80 81 82 83 84 85 86 87 88 89 90 91 92 93 94 95 96 97 98 99 100 101 102 103 104 105 106 107 108 109 110 111 112 113 114 115 116 117 118 119 120 121 122 123 124 125 126 127 
Z_COORDINATES 1 int
0
POINT_DATA 16384 
SCALARS density double 1
LOOKUP_TABLE default
1.000000e+000 
1.000000e+000 
1.000000e+000 
1.000000e+000 
1.000000e+000 
1.000000e+000 
1.000000e+000 
1.000000e+000 
1.000000e+000 
1.000000e+000 
1.000000e+000 
1.000000e+000 
1.000000e+000 
1.000000e+000 
1.000000e+000 
1.000000e+000 
1.000000e+000 
1.000000e+000 
1.000000e+000 
1.000000e+000 
1.000000e+000 
1.000000e+000 
1.000000e+000 
1.000000e+000 
1.000000e+000 
1.000000e+000 
1.000000e+000 
1.000000e+000 
1.000000e+000 
1.000000e+000 
1.000000e+000 
1.000000e+000 
1.000000e+000 
1.000000e+000 
1.000000e+000 
1.000000e+000 
1.000000e+000 
1.000000e+000 
1.000000e+000 
1.000000e+000 
1.000000e+000 
1.000000e+000 
1.000000e+000 
1.000000e+000 
1.000000e+000 
1.000000e+000 
1.000000e+000 
1.000000e+000 
1.000000e+000 
1.000000e+000 
1.000000e+000 
1.000000e+000 
1.000000e+000 
1.000000e+000 
1.000000e+000 
1.000000e+000 
1.000000e+000 
1.000000e+000 
1.000000e+000 
1.000000e+000 
1.000000e+000 
1.000000e+000 
1.000000e+000 
1.000000e+000 
1.000000e+000 
1.000000e+000 
1.000000e+000 
1.000000e+000 
1.000000e+000 
1.000000e+000 
1.000000e+000 
1.000000e+000 
1.000000e+000 
1.000000e+000 
1.000000e+000 
1.000000e+000 
1.000000e+000 
1.000000e+000 
1.000000e+000 
1.000000e+000 
1.000000e+000 
1.000000e+000 
1.000000e+000 
1.000000e+000 
1.000000e+000 
1.000000e+000 
1.000000e+000 
1.000000e+000 
1.000000e+000 
1.000000e+000 
1.000000e+000 
1.000000e+000 
1.000000e+000 
1.000000e+000 
1.000000e+000 
1.000000e+000 
1.000000e+000 
1.000000e+000 
1.000000e+000 
1.000000e+000 
1.000000e+000 
1.000000e+000 
1.000000e+000 
1.000000e+000 
1.000000e+000 
1.000000e+000 
1.000000e+000 
1.000000e+000 
1.000000e+000 
1.000000e+000 
1.000000e+000 
1.000000e+000 
1.000000e+000 
1.000000e+000 
1.000000e+000 
1.000000e+000 
1.000000e+000 
1.000000e+000 
1.000000e+000 
1.000000e+000 
1.000000e+000 
1.000000e+000 
1.000000e+000 
1.000000e+000 
1.000000e+000 
1.000000e+000 
1.000000e+000 
1.000000e+000 
1.000000e+000 
3.125052e-004 
3.124566e-004 
3.125525e-004 
3.128365e-004 
3.133048e-004 
3.139213e-004 
3.146525e-004 
3.154698e-004 
3.163480e-004 
3.172646e-004 
3.181998e-004 
3.191366e-004 
3.200604e-004 
3.209585e-004 
3.218200e-004 
3.226357e-004 
3.233977e-004 
3.240993e-004 
3.247348e-004 
3.252995e-004 
3.257893e-004 
3.262011e-004 
3.265322e-004 
3.267804e-004 
3.269440e-004 
3.270218e-004 
3.270128e-004 
3.269162e-004 
3.267316e-004 
3.264587e-004 
3.260976e-004 
3.256483e-004 
3.251109e-004 
3.244860e-004 
3.237739e-004 
3.229751e-004 
3.220903e-004 
3.211202e-004 
3.200657e-004 
3.189275e-004 
3.177067e-004 
3.164043e-004 
3.150216e-004 
3.135597e-004 
3.120200e-004 
3.104042e-004 
3.087137e-004 
3.069504e-004 
3.051162e-004 
3.032132e-004 
3.012438e-004 
2.992102e-004 
2.971153e-004 
2.949618e-004 
2.927528e-004 
2.904916e-004 
2.881818e-004 
2.858269e-004 
2.834311e-004 
2.809985e-004 
2.785335e-004 
2.760408e-004 
2.735254e-004 
2.709922e-004 
2.684467e-004 
2.658944e-004 
2.633410e-004 
2.607924e-004 
2.582547e-004 
2.557340e-004 
2.532367e-004 
2.507693e-004 
2.483381e-004 
2.459497e-004 
2.436107e-004 
2.413276e-004 
2.391068e-004 
2.369547e-004 
2.348775e-004 
2.328815e-004 
2.309724e-004 
2.291559e-004 
2.274375e-004 
2.258221e-004 
2.243145e-004 
2.229191e-004 
2.216397e-004 
2.204799e-004 
2.194426e-004 
2.185302e-004 
2.177447e-004 
2.170874e-004 
2.165590e-004 
2.161596e-004 
2.158888e-004 
2.157452e-004 
2.157271e-004 
2.158318e-004 
2.160563e-004 
2.163966e-004 
2.168480e-004 
2.174053e-004 
2.180625e-004 
2.188129e-004 
2.196491e-004 
2.205631e-004 
2.215460e-004 
2.225886e-004 
2.236805e-004 
2.248110e-004 
2.259686e-004 
2.271409e-004 
2.283149e-004 
2.294769e-004 
2.306122e-004 
2.317054e-004 
2.327400e-004 
2.336989e-004 
2.345640e-004 
2.353164e-004 
2.359375e-004 
2.364088e-004 
2.367121e-004 
2.368351e-004 
2.368127e-004 
2.367129e-004 
1.000000e+000 
1.000000e+000 
3.125520e-004 
3.125044e-004 
3.126053e-004 
3.128718e-004 
3.132840e-004 
3.138251e-004 
3.144710e-004 
3.151979e-004 
3.159833e-004 
3.168072e-004 
3.176516e-004 
3.185008e-004 
3.193409e-004 
3.201599e-004 
3.209472e-004 
3.216938e-004 
3.223918e-004 
3.230346e-004 
3.236165e-004 
3.241325e-004 
3.245787e-004 
3.249515e-004 
3.252483e-004 
3.254667e-004 
3.256048e-004 
3.256611e-004 
3.256345e-004 
3.255242e-004 
3.253296e-004 
3.250502e-004 
3.246859e-004 
3.242366e-004 
3.237025e-004 
3.230838e-004 
3.223809e-004 
3.215942e-004 
3.207243e-004 
3.197719e-004 
3.187377e-004 
3.176225e-004 
3.164273e-004 
3.151532e-004 
3.138012e-004 
3.123726e-004 
3.108688e-004 
3.092913e-004 
3.076416e-004 
3.059216e-004 
3.041332e-004 
3.022784e-004 
3.003595e-004 
2.983789e-004 
2.963392e-004 
2.942433e-004 
2.920941e-004 
2.898949e-004 
2.876491e-004 
2.853604e-004 
2.830325e-004 
2.806698e-004 
2.782763e-004 
2.758568e-004 
2.734159e-004 
2.709585e-004 
2.684900e-004 
2.660155e-004 
2.635406e-004 
2.610711e-004 
2.586127e-004 
2.561714e-004 
2.537533e-004 
2.513646e-004 
2.490114e-004 
2.467000e-004 
2.444367e-004 
2.422277e-004 
2.400791e-004 
2.379971e-004 
2.359876e-004 
2.340564e-004 
2.322090e-004 
2.304509e-004 
2.287871e-004 
2.272225e-004 
2.257615e-004 
2.244081e-004 
2.231661e-004 
2.220387e-004 
2.210286e-004 
2.201381e-004 
2.193689e-004 
2.187222e-004 
2.181986e-004 
2.177981e-004 
2.175201e-004 
2.173633e-004 
2.173259e-004 
2.174054e-004 
2.175985e-004 
2.179015e-004 
2.183097e-004 
2.188182e-004 
2.194209e-004 
2.201115e-004 
2.208828e-004 
2.217270e-004 
2.226356e-004 
2.235996e-004 
2.246093e-004 
2.256542e-004 
2.267233e-004 
2.278050e-004 
2.288869e-004 
2.299560e-004 
2.309985e-004 
2.320002e-004 
2.329460e-004 
2.338204e-004 
2.346074e-004 
2.352909e-004 
2.358549e-004 
2.362852e-004 
2.365718e-004 
2.367142e-004 
2.367213e-004 
2.366263e-004 
1.000000e+000 
1.000000e+000 
3.124557e-004 
3.124042e-004 
3.125056e-004 
3.127574e-004 
3.131353e-004 
3.136268e-004 
3.142115e-004 
3.148694e-004 
3.155815e-004 
3.163302e-004 
3.170994e-004 
3.178746e-004 
3.186430e-004 
3.193932e-004 
3.201152e-004 
3.208003e-004 
3.214410e-004 
3.220306e-004 
3.225636e-004 
3.230350e-004 
3.234408e-004 
3.237776e-004 
3.240423e-004 
3.242327e-004 
3.243466e-004 
3.243826e-004 
3.243394e-004 
3.242159e-004 
3.240115e-004 
3.237257e-004 
3.233582e-004 
3.229089e-004 
3.223777e-004 
3.217649e-004 
3.210707e-004 
3.202956e-004 
3.194399e-004 
3.185044e-004 
3.174896e-004 
3.163965e-004 
3.152260e-004 
3.139789e-004 
3.126564e-004 
3.112598e-004 
3.097904e-004 
3.082496e-004 
3.066390e-004 
3.049605e-004 
3.032157e-004 
3.014069e-004 
2.995362e-004 
2.976060e-004 
2.956189e-004 
2.935776e-004 
2.914851e-004 
2.893445e-004 
2.871592e-004 
2.849328e-004 
2.826690e-004 
2.803718e-004 
2.780455e-004 
2.756944e-004 
2.733232e-004 
2.709367e-004 
2.685398e-004 
2.661377e-004 
2.637359e-004 
2.613397e-004 
2.589548e-004 
2.565869e-004 
2.542420e-004 
2.519259e-004 
2.496446e-004 
2.474041e-004 
2.452104e-004 
2.430694e-004 
2.409871e-004 
2.389693e-004 
2.370217e-004 
2.351498e-004 
2.333589e-004 
2.316541e-004 
2.300403e-004 
2.285220e-004 
2.271035e-004 
2.257886e-004 
2.245807e-004 
2.234829e-004 
2.224978e-004 
2.216274e-004 
2.208733e-004 
2.202366e-004 
2.197177e-004 
2.193166e-004 
2.190326e-004 
2.188645e-004 
2.188103e-004 
2.188675e-004 
2.190330e-004 
2.193030e-004 
2.196731e-004 
2.201384e-004 
2.206930e-004 
2.213308e-004 
2.220447e-004 
2.228274e-004 
2.236706e-004 
2.245657e-004 
2.255033e-004 
2.264734e-004 
2.274656e-004 
2.284688e-004 
2.294713e-004 
2.304609e-004 
2.314248e-004 
2.323498e-004 
2.332221e-004 
2.340277e-004 
2.347524e-004 
2.353823e-004 
2.359040e-004 
2.363057e-004 
2.365786e-004 
2.367230e-004 
2.367313e-004 
2.366118e-004 
1.000000e+000 
1.000000e+000 
3.121731e-004 
3.121388e-004 
3.122556e-004 
3.125082e-004 
3.128731e-004 
3.133360e-004 
3.138797e-004 
3.144880e-004 
3.151448e-004 
3.158346e-004 
3.165430e-004 
3.172570e-004 
3.179650e-004 
3.186563e-004 
3.193217e-004 
3.199530e-004 
3.205427e-004 
3.210848e-004 
3.215736e-004 
3.220045e-004 
3.223734e-004 
3.226769e-004 
3.229119e-004 
3.230762e-004 
3.231675e-004 
3.231844e-004 
3.231254e-004 
3.229895e-004 
3.227758e-004 
3.224839e-004 
3.221133e-004 
3.216638e-004 
3.211354e-004 
3.205281e-004 
3.198422e-004 
3.190781e-004 
3.182360e-004 
3.173166e-004 
3.163206e-004 
3.152487e-004 
3.141017e-004 
3.128806e-004 
3.115864e-004 
3.102205e-004 
3.087840e-004 
3.072783e-004 
3.057052e-004 
3.040662e-004 
3.023631e-004 
3.005981e-004 
2.987733e-004 
2.968910e-004 
2.949537e-004 
2.929641e-004 
2.909252e-004 
2.888399e-004 
2.867116e-004 
2.845438e-004 
2.823401e-004 
2.801045e-004 
2.778410e-004 
2.755539e-004 
2.732476e-004 
2.709270e-004 
2.685967e-004 
2.662618e-004 
2.639275e-004 
2.615991e-004 
2.592821e-004 
2.569820e-004 
2.547043e-004 
2.524550e-004 
2.502396e-004 
2.480640e-004 
2.459340e-004 
2.438553e-004 
2.418335e-004 
2.398743e-004 
2.379831e-004 
2.361651e-004 
2.344256e-004 
2.327693e-004 
2.312010e-004 
2.297248e-004 
2.283449e-004 
2.270649e-004 
2.258881e-004 
2.248173e-004 
2.238550e-004 
2.230031e-004 
2.222629e-004 
2.216356e-004 
2.211215e-004 
2.207204e-004 
2.204315e-004 
2.202537e-004 
2.201851e-004 
2.202230e-004 
2.203645e-004 
2.206058e-004 
2.209427e-004 
2.213702e-004 
2.218828e-004 
2.224745e-004 
2.231385e-004 
2.238676e-004 
2.246540e-004 
2.254893e-004 
2.263646e-004 
2.272703e-004 
2.281965e-004 
2.291328e-004 
2.300680e-004 
2.309909e-004 
2.318894e-004 
2.327515e-004 
2.335644e-004 
2.343157e-004 
2.349926e-004 
2.355828e-004 
2.360746e-004 
2.364584e-004 
2.367249e-004 
2.368688e-004 
2.368738e-004 
2.367334e-004 
1.000000e+000 
1.000000e+000 
3.117057e-004 
3.117274e-004 
3.118796e-004 
3.121473e-004 
3.125137e-004 
3.129642e-004 
3.134842e-004 
3.140596e-004 
3.146765e-004 
3.153216e-004 
3.159822e-004 
3.166469e-004 
3.173050e-004 
3.179468e-004 
3.185638e-004 
3.191484e-004 
3.196936e-004 
3.201936e-004 
3.206431e-004 
3.210376e-004 
3.213730e-004 
3.216462e-004 
3.218540e-004 
3.219942e-004 
3.220647e-004 
3.220638e-004 
3.219900e-004 
3.218425e-004 
3.216201e-004 
3.213225e-004 
3.209490e-004 
3.204994e-004 
3.199737e-004 
3.193717e-004 
3.186938e-004 
3.179402e-004 
3.171111e-004 
3.162073e-004 
3.152292e-004 
3.141775e-004 
3.130532e-004 
3.118570e-004 
3.105900e-004 
3.092534e-004 
3.078484e-004 
3.063764e-004 
3.048389e-004 
3.032376e-004 
3.015743e-004 
2.998510e-004 
2.980697e-004 
2.962328e-004 
2.943427e-004 
2.924021e-004 
2.904137e-004 
2.883805e-004 
2.863059e-004 
2.841931e-004 
2.820457e-004 
2.798676e-004 
2.776627e-004 
2.754352e-004 
2.731894e-004 
2.709299e-004 
2.686613e-004 
2.663886e-004 
2.641167e-004 
2.618508e-004 
2.595962e-004 
2.573582e-004 
2.551423e-004 
2.529541e-004 
2.507990e-004 
2.486828e-004 
2.466108e-004 
2.445888e-004 
2.426220e-004 
2.407161e-004 
2.388760e-004 
2.371071e-004 
2.354141e-004 
2.338018e-004 
2.322746e-004 
2.308366e-004 
2.294917e-004 
2.282434e-004 
2.270947e-004 
2.260485e-004 
2.251070e-004 
2.242719e-004 
2.235447e-004 
2.229263e-004 
2.224169e-004 
2.220163e-004 
2.217238e-004 
2.215380e-004 
2.214571e-004 
2.214787e-004 
2.215996e-004 
2.218162e-004 
2.221245e-004 
2.225195e-004 
2.229959e-004 
2.235479e-004 
2.241689e-004 
2.248521e-004 
2.255897e-004 
2.263739e-004 
2.271960e-004 
2.280471e-004 
2.289176e-004 
2.297977e-004 
2.306770e-004 
2.315448e-004 
2.323901e-004 
2.332016e-004 
2.339679e-004 
2.346774e-004 
2.353189e-004 
2.358814e-004 
2.363542e-004 
2.367280e-004 
2.369932e-004 
2.371412e-004 
2.371574e-004 
2.370307e-004 
1.000000e+000 
1.000000e+000 
3.110880e-004 
3.111856e-004 
3.113891e-004 
3.116883e-004 
3.120706e-004 
3.125233e-004 
3.130341e-004 
3.135907e-004 
3.141813e-004 
3.147944e-004 
3.154190e-004 
3.160450e-004 
3.166629e-004 
3.172640e-004 
3.178404e-004 
3.183852e-004 
3.188920e-004 
3.193553e-004 
3.197701e-004 
3.201322e-004 
3.204377e-004 
3.206835e-004 
3.208667e-004 
3.209850e-004 
3.210363e-004 
3.210191e-004 
3.209318e-004 
3.207735e-004 
3.205432e-004 
3.202403e-004 
3.198642e-004 
3.194147e-004 
3.188916e-004 
3.182948e-004 
3.176246e-004 
3.168811e-004 
3.160646e-004 
3.151757e-004 
3.142148e-004 
3.131826e-004 
3.120800e-004 
3.109076e-004 
3.096666e-004 
3.083581e-004 
3.069832e-004 
3.055433e-004 
3.040399e-004 
3.024746e-004 
3.008491e-004 
2.991653e-004 
2.974254e-004 
2.956314e-004 
2.937859e-004 
2.918914e-004 
2.899506e-004 
2.879664e-004 
2.859421e-004 
2.838808e-004 
2.817861e-004 
2.796616e-004 
2.775113e-004 
2.753391e-004 
2.731493e-004 
2.709464e-004 
2.687348e-004 
2.665193e-004 
2.643049e-004 
2.620964e-004 
2.598990e-004 
2.577179e-004 
2.555584e-004 
2.534259e-004 
2.513257e-004 
2.492633e-004 
2.472441e-004 
2.452734e-004 
2.433565e-004 
2.414986e-004 
2.397049e-004 
2.379801e-004 
2.363291e-004 
2.347564e-004 
2.332662e-004 
2.318626e-004 
2.305492e-004 
2.293294e-004 
2.282062e-004 
2.271822e-004 
2.262595e-004 
2.254399e-004 
2.247247e-004 
2.241146e-004 
2.236099e-004 
2.232104e-004 
2.229152e-004 
2.227231e-004 
2.226322e-004 
2.226400e-004 
2.227437e-004 
2.229395e-004 
2.232235e-004 
2.235910e-004 
2.240368e-004 
2.245551e-004 
2.251398e-004 
2.257840e-004 
2.264806e-004 
2.272219e-004 
2.279996e-004 
2.288051e-004 
2.296296e-004 
2.304636e-004 
2.312973e-004 
2.321209e-004 
2.329241e-004 
2.336965e-004 
2.344275e-004 
2.351068e-004 
2.357241e-004 
2.362693e-004 
2.367329e-004 
2.371057e-004 
2.373781e-004 
2.375406e-004 
2.375816e-004 
2.374915e-004 
1.000000e+000 
1.000000e+000 
3.103519e-004 
3.105362e-004 
3.108037e-004 
3.111475e-004 
3.115579e-004 
3.120251e-004 
3.125388e-004 
3.130886e-004 
3.136646e-004 
3.142569e-004 
3.148560e-004 
3.154530e-004 
3.160395e-004 
3.166078e-004 
3.171510e-004 
3.176625e-004 
3.181368e-004 
3.185685e-004 
3.189532e-004 
3.192868e-004 
3.195659e-004 
3.197873e-004 
3.199484e-004 
3.200470e-004 
3.200810e-004 
3.200490e-004 
3.199495e-004 
3.197814e-004 
3.195439e-004 
3.192363e-004 
3.188580e-004 
3.184088e-004 
3.178884e-004 
3.172968e-004 
3.166341e-004 
3.159004e-004 
3.150961e-004 
3.142215e-004 
3.132771e-004 
3.122637e-004 
3.111818e-004 
3.100323e-004 
3.088162e-004 
3.075345e-004 
3.061884e-004 
3.047791e-004 
3.033081e-004 
3.017770e-004 
3.001874e-004 
2.985411e-004 
2.968403e-004 
2.950870e-004 
2.932835e-004 
2.914324e-004 
2.895363e-004 
2.875981e-004 
2.856208e-004 
2.836076e-004 
2.815619e-004 
2.794873e-004 
2.773876e-004 
2.752667e-004 
2.731287e-004 
2.709779e-004 
2.688188e-004 
2.666559e-004 
2.644940e-004 
2.623380e-004 
2.601928e-004 
2.580635e-004 
2.559552e-004 
2.538733e-004 
2.518228e-004 
2.498091e-004 
2.478375e-004 
2.459130e-004 
2.440410e-004 
2.422263e-004 
2.404740e-004 
2.387889e-004 
2.371754e-004 
2.356381e-004 
2.341811e-004 
2.328082e-004 
2.315230e-004 
2.303288e-004 
2.292284e-004 
2.282243e-004 
2.273187e-004 
2.265132e-004 
2.258089e-004 
2.252067e-004 
2.247067e-004 
2.243087e-004 
2.240119e-004 
2.238149e-004 
2.237160e-004 
2.237127e-004 
2.238022e-004 
2.239808e-004 
2.242447e-004 
2.245894e-004 
2.250097e-004 
2.255001e-004 
2.260546e-004 
2.266668e-004 
2.273295e-004 
2.280355e-004 
2.287769e-004 
2.295455e-004 
2.303329e-004 
2.311301e-004 
2.319281e-004 
2.327175e-004 
2.334887e-004 
2.342323e-004 
2.349385e-004 
2.355978e-004 
2.362009e-004 
2.367385e-004 
2.372019e-004 
2.375822e-004 
2.378710e-004 
2.380593e-004 
2.381372e-004 
2.380979e-004 
1.000000e+000 
1.000000e+000 
3.095244e-004 
3.098018e-004 
3.101421e-004 
3.105402e-004 
3.109890e-004 
3.114810e-004 
3.120080e-004 
3.125614e-004 
3.131329e-004 
3.137140e-004 
3.142968e-004 
3.148734e-004 
3.154366e-004 
3.159796e-004 
3.164961e-004 
3.169805e-004 
3.174276e-004 
3.178327e-004 
3.181916e-004 
3.185006e-004 
3.187566e-004 
3.189566e-004 
3.190982e-004 
3.191793e-004 
3.191979e-004 
3.191527e-004 
3.190422e-004 
3.188655e-004 
3.186216e-004 
3.183099e-004 
3.179300e-004 
3.174813e-004 
3.169638e-004 
3.163774e-004 
3.157220e-004 
3.149979e-004 
3.142053e-004 
3.133446e-004 
3.124162e-004 
3.114207e-004 
3.103588e-004 
3.092312e-004 
3.080389e-004 
3.067829e-004 
3.054642e-004 
3.040841e-004 
3.026439e-004 
3.011452e-004 
2.995896e-004 
2.979789e-004 
2.963150e-004 
2.946000e-004 
2.928361e-004 
2.910257e-004 
2.891716e-004 
2.872763e-004 
2.853429e-004 
2.833745e-004 
2.813744e-004 
2.793460e-004 
2.772931e-004 
2.752195e-004 
2.731291e-004 
2.710262e-004 
2.689151e-004 
2.668002e-004 
2.646863e-004 
2.625780e-004 
2.604801e-004 
2.583977e-004 
2.563358e-004 
2.542994e-004 
2.522937e-004 
2.503237e-004 
2.483947e-004 
2.465116e-004 
2.446795e-004 
2.429034e-004 
2.411881e-004 
2.395381e-004 
2.379580e-004 
2.364522e-004 
2.350245e-004 
2.336788e-004 
2.324186e-004 
2.312471e-004 
2.301670e-004 
2.291807e-004 
2.282903e-004 
2.274975e-004 
2.268032e-004 
2.262084e-004 
2.257130e-004 
2.253170e-004 
2.250194e-004 
2.248190e-004 
2.247139e-004 
2.247019e-004 
2.247800e-004 
2.249449e-004 
2.251926e-004 
2.255188e-004 
2.259185e-004 
2.263864e-004 
2.269167e-004 
2.275030e-004 
2.281387e-004 
2.288166e-004 
2.295293e-004 
2.302691e-004 
2.310277e-004 
2.317968e-004 
2.325680e-004 
2.333323e-004 
2.340810e-004 
2.348052e-004 
2.354960e-004 
2.361447e-004 
2.367426e-004 
2.372814e-004 
2.377531e-004 
2.381496e-004 
2.384632e-004 
2.386865e-004 
2.388114e-004 
2.388323e-004 
1.000000e+000 
1.000000e+000 
3.086291e-004 
3.090039e-004 
3.094227e-004 
3.098821e-004 
3.103774e-004 
3.109027e-004 
3.114516e-004 
3.120173e-004 
3.125928e-004 
3.131712e-004 
3.137457e-004 
3.143095e-004 
3.148566e-004 
3.153809e-004 
3.158770e-004 
3.163399e-004 
3.167649e-004 
3.171480e-004 
3.174852e-004 
3.177734e-004 
3.180096e-004 
3.181911e-004 
3.183157e-004 
3.183815e-004 
3.183867e-004 
3.183298e-004 
3.182098e-004 
3.180255e-004 
3.177761e-004 
3.174612e-004 
3.170800e-004 
3.166323e-004 
3.161179e-004 
3.155366e-004 
3.148886e-004 
3.141738e-004 
3.133927e-004 
3.125453e-004 
3.116323e-004 
3.106541e-004 
3.096114e-004 
3.085048e-004 
3.073353e-004 
3.061037e-004 
3.048112e-004 
3.034588e-004 
3.020480e-004 
3.005801e-004 
2.990567e-004 
2.974795e-004 
2.958504e-004 
2.941714e-004 
2.924446e-004 
2.906725e-004 
2.888575e-004 
2.870023e-004 
2.851097e-004 
2.831829e-004 
2.812249e-004 
2.792392e-004 
2.772294e-004 
2.751992e-004 
2.731524e-004 
2.710933e-004 
2.690259e-004 
2.669547e-004 
2.648843e-004 
2.628191e-004 
2.607639e-004 
2.587237e-004 
2.567033e-004 
2.547077e-004 
2.527418e-004 
2.508108e-004 
2.489196e-004 
2.470732e-004 
2.452765e-004 
2.435344e-004 
2.418516e-004 
2.402326e-004 
2.386818e-004 
2.372035e-004 
2.358016e-004 
2.344798e-004 
2.332415e-004 
2.320898e-004 
2.310275e-004 
2.300569e-004 
2.291800e-004 
2.283984e-004 
2.277132e-004 
2.271252e-004 
2.266344e-004 
2.262406e-004 
2.259430e-004 
2.257404e-004 
2.256310e-004 
2.256124e-004 
2.256819e-004 
2.258361e-004 
2.260713e-004 
2.263832e-004 
2.267669e-004 
2.272173e-004 
2.277288e-004 
2.282952e-004 
2.289101e-004 
2.295667e-004 
2.302579e-004 
2.309762e-004 
2.317138e-004 
2.324630e-004 
2.332155e-004 
2.339633e-004 
2.346980e-004 
2.354114e-004 
2.360954e-004 
2.367418e-004 
2.373429e-004 
2.378910e-004 
2.383787e-004 
2.387990e-004 
2.391452e-004 
2.394110e-004 
2.395901e-004 
2.396782e-004 
1.000000e+000 
1.000000e+000 
3.076874e-004 
3.081614e-004 
3.086625e-004 
3.091883e-004 
3.097360e-004 
3.103013e-004 
3.108792e-004 
3.114645e-004 
3.120514e-004 
3.126343e-004 
3.132075e-004 
3.137653e-004 
3.143026e-004 
3.148143e-004 
3.152956e-004 
3.157421e-004 
3.161498e-004 
3.165151e-004 
3.168347e-004 
3.171055e-004 
3.173251e-004 
3.174909e-004 
3.176010e-004 
3.176536e-004 
3.176471e-004 
3.175803e-004 
3.174521e-004 
3.172614e-004 
3.170076e-004 
3.166900e-004 
3.163083e-004 
3.158620e-004 
3.153509e-004 
3.147750e-004 
3.141342e-004 
3.134287e-004 
3.126587e-004 
3.118244e-004 
3.109262e-004 
3.099647e-004 
3.089403e-004 
3.078539e-004 
3.067061e-004 
3.054979e-004 
3.042303e-004 
3.029043e-004 
3.015213e-004 
3.000825e-004 
2.985895e-004 
2.970440e-004 
2.954476e-004 
2.938024e-004 
2.921105e-004 
2.903740e-004 
2.885955e-004 
2.867775e-004 
2.849228e-004 
2.830343e-004 
2.811152e-004 
2.791688e-004 
2.771985e-004 
2.752079e-004 
2.732009e-004 
2.711815e-004 
2.691538e-004 
2.671220e-004 
2.650906e-004 
2.630642e-004 
2.610472e-004 
2.590446e-004 
2.570611e-004 
2.551016e-004 
2.531710e-004 
2.512743e-004 
2.494163e-004 
2.476020e-004 
2.458363e-004 
2.441238e-004 
2.424692e-004 
2.408771e-004 
2.393517e-004 
2.378972e-004 
2.365175e-004 
2.352162e-004 
2.339968e-004 
2.328622e-004 
2.318153e-004 
2.308583e-004 
2.299931e-004 
2.292215e-004 
2.285443e-004 
2.279625e-004 
2.274760e-004 
2.270848e-004 
2.267879e-004 
2.265842e-004 
2.264719e-004 
2.264488e-004 
2.265122e-004 
2.266587e-004 
2.268847e-004 
2.271860e-004 
2.275581e-004 
2.279957e-004 
2.284935e-004 
2.290455e-004 
2.296456e-004 
2.302872e-004 
2.309634e-004 
2.316671e-004 
2.323910e-004 
2.331275e-004 
2.338692e-004 
2.346081e-004 
2.353367e-004 
2.360473e-004 
2.367322e-004 
2.373841e-004 
2.379957e-004 
2.385603e-004 
2.390711e-004 
2.395220e-004 
2.399072e-004 
2.402214e-004 
2.404602e-004 
2.406200e-004 
1.000000e+000 
1.000000e+000 
3.067182e-004 
3.072918e-004 
3.078771e-004 
3.084729e-004 
3.090775e-004 
3.096880e-004 
3.103006e-004 
3.109114e-004 
3.115159e-004 
3.121094e-004 
3.126873e-004 
3.132451e-004 
3.137783e-004 
3.142827e-004 
3.147541e-004 
3.151890e-004 
3.155838e-004 
3.159354e-004 
3.162409e-004 
3.164977e-004 
3.167036e-004 
3.168564e-004 
3.169544e-004 
3.169960e-004 
3.169798e-004 
3.169047e-004 
3.167696e-004 
3.165737e-004 
3.163164e-004 
3.159971e-004 
3.156153e-004 
3.151709e-004 
3.146635e-004 
3.140931e-004 
3.134596e-004 
3.127633e-004 
3.120041e-004 
3.111825e-004 
3.102987e-004 
3.093533e-004 
3.083466e-004 
3.072795e-004 
3.061526e-004 
3.049666e-004 
3.037227e-004 
3.024218e-004 
3.010651e-004 
2.996539e-004 
2.981896e-004 
2.966737e-004 
2.951081e-004 
2.934946e-004 
2.918351e-004 
2.901319e-004 
2.883872e-004 
2.866037e-004 
2.847840e-004 
2.829309e-004 
2.810474e-004 
2.791368e-004 
2.772025e-004 
2.752480e-004 
2.732771e-004 
2.712935e-004 
2.693014e-004 
2.673050e-004 
2.653085e-004 
2.633164e-004 
2.613333e-004 
2.593638e-004 
2.574128e-004 
2.554849e-004 
2.535851e-004 
2.517181e-004 
2.498890e-004 
2.481024e-004 
2.463632e-004 
2.446761e-004 
2.430456e-004 
2.414763e-004 
2.399725e-004 
2.385381e-004 
2.371772e-004 
2.358933e-004 
2.346898e-004 
2.335697e-004 
2.325357e-004 
2.315901e-004 
2.307350e-004 
2.299718e-004 
2.293017e-004 
2.287253e-004 
2.282430e-004 
2.278544e-004 
2.275588e-004 
2.273549e-004 
2.272412e-004 
2.272154e-004 
2.272748e-004 
2.274164e-004 
2.276363e-004 
2.279307e-004 
2.282950e-004 
2.287242e-004 
2.292130e-004 
2.297558e-004 
2.303466e-004 
2.309789e-004 
2.316463e-004 
2.323419e-004 
2.330587e-004 
2.337896e-004 
2.345273e-004 
2.352646e-004 
2.359943e-004 
2.367091e-004 
2.374021e-004 
2.380664e-004 
2.386954e-004 
2.392829e-004 
2.398230e-004 
2.403103e-004 
2.407397e-004 
2.411072e-004 
2.414092e-004 
2.416434e-004 
1.000000e+000 
1.000000e+000 
3.057381e-004 
3.064106e-004 
3.070811e-004 
3.077490e-004 
3.084138e-004 
3.090733e-004 
3.097252e-004 
3.103664e-004 
3.109935e-004 
3.116028e-004 
3.121908e-004 
3.127536e-004 
3.132876e-004 
3.137894e-004 
3.142556e-004 
3.146831e-004 
3.150690e-004 
3.154105e-004 
3.157054e-004 
3.159513e-004 
3.161464e-004 
3.162887e-004 
3.163769e-004 
3.164095e-004 
3.163854e-004 
3.163035e-004 
3.161630e-004 
3.159631e-004 
3.157033e-004 
3.153831e-004 
3.150020e-004 
3.145599e-004 
3.140566e-004 
3.134919e-004 
3.128658e-004 
3.121785e-004 
3.114301e-004 
3.106209e-004 
3.097511e-004 
3.088211e-004 
3.078316e-004 
3.067829e-004 
3.056759e-004 
3.045112e-004 
3.032898e-004 
3.020127e-004 
3.006809e-004 
2.992957e-004 
2.978584e-004 
2.963705e-004 
2.948337e-004 
2.932497e-004 
2.916205e-004 
2.899481e-004 
2.882348e-004 
2.864830e-004 
2.846954e-004 
2.828747e-004 
2.810238e-004 
2.791459e-004 
2.772442e-004 
2.753222e-004 
2.733836e-004 
2.714321e-004 
2.694717e-004 
2.675066e-004 
2.655409e-004 
2.635791e-004 
2.616256e-004 
2.596850e-004 
2.577621e-004 
2.558615e-004 
2.539880e-004 
2.521465e-004 
2.503418e-004 
2.485786e-004 
2.468617e-004 
2.451959e-004 
2.435855e-004 
2.420352e-004 
2.405491e-004 
2.391314e-004 
2.377858e-004 
2.365161e-004 
2.353255e-004 
2.342172e-004 
2.331938e-004 
2.322576e-004 
2.314106e-004 
2.306545e-004 
2.299903e-004 
2.294187e-004 
2.289401e-004 
2.285541e-004 
2.282601e-004 
2.280570e-004 
2.279431e-004 
2.279162e-004 
2.279737e-004 
2.281127e-004 
2.283295e-004 
2.286201e-004 
2.289803e-004 
2.294051e-004 
2.298894e-004 
2.304278e-004 
2.310143e-004 
2.316429e-004 
2.323071e-004 
2.330006e-004 
2.337165e-004 
2.344480e-004 
2.351883e-004 
2.359306e-004 
2.366679e-004 
2.373935e-004 
2.381010e-004 
2.387840e-004 
2.394365e-004 
2.400527e-004 
2.406275e-004 
2.411560e-004 
2.416341e-004 
2.420583e-004 
2.424261e-004 
2.427359e-004 
1.000000e+000 
1.000000e+000 
3.047616e-004 
3.055318e-004 
3.062875e-004 
3.070288e-004 
3.077559e-004 
3.084675e-004 
3.091622e-004 
3.098377e-004 
3.104916e-004 
3.111211e-004 
3.117234e-004 
3.122956e-004 
3.128349e-004 
3.133383e-004 
3.138032e-004 
3.142272e-004 
3.146077e-004 
3.149426e-004 
3.152300e-004 
3.154679e-004 
3.156548e-004 
3.157892e-004 
3.158698e-004 
3.158954e-004 
3.158651e-004 
3.157780e-004 
3.156335e-004 
3.154308e-004 
3.151695e-004 
3.148491e-004 
3.144695e-004 
3.140302e-004 
3.135313e-004 
3.129726e-004 
3.123541e-004 
3.116758e-004 
3.109380e-004 
3.101409e-004 
3.092847e-004 
3.083697e-004 
3.073966e-004 
3.063657e-004 
3.052777e-004 
3.041333e-004 
3.029334e-004 
3.016788e-004 
3.003705e-004 
2.990098e-004 
2.975979e-004 
2.961362e-004 
2.946263e-004 
2.930698e-004 
2.914686e-004 
2.898248e-004 
2.881404e-004 
2.864178e-004 
2.846596e-004 
2.828683e-004 
2.810470e-004 
2.791985e-004 
2.773261e-004 
2.754333e-004 
2.735234e-004 
2.716004e-004 
2.696680e-004 
2.677303e-004 
2.657914e-004 
2.638558e-004 
2.619278e-004 
2.600119e-004 
2.581129e-004 
2.562353e-004 
2.543839e-004 
2.525636e-004 
2.507791e-004 
2.490352e-004 
2.473365e-004 
2.456878e-004 
2.440937e-004 
2.425584e-004 
2.410864e-004 
2.396817e-004 
2.383482e-004 
2.370896e-004 
2.359091e-004 
2.348098e-004 
2.337945e-004 
2.328656e-004 
2.320250e-004 
2.312744e-004 
2.306149e-004 
2.300472e-004 
2.295718e-004 
2.291884e-004 
2.288963e-004 
2.286945e-004 
2.285814e-004 
2.285548e-004 
2.286123e-004 
2.287509e-004 
2.289671e-004 
2.292571e-004 
2.296165e-004 
2.300406e-004 
2.305246e-004 
2.310629e-004 
2.316499e-004 
2.322797e-004 
2.329461e-004 
2.336429e-004 
2.343636e-004 
2.351017e-004 
2.358506e-004 
2.366038e-004 
2.373548e-004 
2.380973e-004 
2.388252e-004 
2.395326e-004 
2.402139e-004 
2.408640e-004 
2.414780e-004 
2.420519e-004 
2.425821e-004 
2.430657e-004 
2.435010e-004 
2.438866e-004 
1.000000e+000 
1.000000e+000 
3.038018e-004 
3.046679e-004 
3.055083e-004 
3.063236e-004 
3.071144e-004 
3.078802e-004 
3.086203e-004 
3.093332e-004 
3.100173e-004 
3.106706e-004 
3.112911e-004 
3.118765e-004 
3.124246e-004 
3.129334e-004 
3.134006e-004 
3.138244e-004 
3.142029e-004 
3.145342e-004 
3.148170e-004 
3.150496e-004 
3.152308e-004 
3.153595e-004 
3.154345e-004 
3.154550e-004 
3.154203e-004 
3.153295e-004 
3.151823e-004 
3.149779e-004 
3.147161e-004 
3.143966e-004 
3.140190e-004 
3.135832e-004 
3.130891e-004 
3.125366e-004 
3.119258e-004 
3.112567e-004 
3.105294e-004 
3.097441e-004 
3.089011e-004 
3.080008e-004 
3.070435e-004 
3.060296e-004 
3.049599e-004 
3.038348e-004 
3.026553e-004 
3.014220e-004 
3.001360e-004 
2.987984e-004 
2.974103e-004 
2.959730e-004 
2.944881e-004 
2.929572e-004 
2.913820e-004 
2.897644e-004 
2.881065e-004 
2.864106e-004 
2.846791e-004 
2.829146e-004 
2.811198e-004 
2.792977e-004 
2.774514e-004 
2.755843e-004 
2.736999e-004 
2.718017e-004 
2.698936e-004 
2.679795e-004 
2.660637e-004 
2.641503e-004 
2.622438e-004 
2.603486e-004 
2.584693e-004 
2.566106e-004 
2.547772e-004 
2.529739e-004 
2.512055e-004 
2.494767e-004 
2.477922e-004 
2.461567e-004 
2.445748e-004 
2.430509e-004 
2.415894e-004 
2.401942e-004 
2.388694e-004 
2.376187e-004 
2.364453e-004 
2.353524e-004 
2.343428e-004 
2.334190e-004 
2.325828e-004 
2.318361e-004 
2.311800e-004 
2.306154e-004 
2.301426e-004 
2.297614e-004 
2.294713e-004 
2.292713e-004 
2.291598e-004 
2.291349e-004 
2.291939e-004 
2.293341e-004 
2.295521e-004 
2.298441e-004 
2.302058e-004 
2.306327e-004 
2.311200e-004 
2.316623e-004 
2.322542e-004 
2.328899e-004 
2.335635e-004 
2.342687e-004 
2.349995e-004 
2.357496e-004 
2.365126e-004 
2.372823e-004 
2.380525e-004 
2.388173e-004 
2.395710e-004 
2.403079e-004 
2.410229e-004 
2.417113e-004 
2.423688e-004 
2.429916e-004 
2.435766e-004 
2.441216e-004 
2.446251e-004 
2.450864e-004 
1.000000e+000 
1.000000e+000 
3.028702e-004 
3.038303e-004 
3.047545e-004 
3.056437e-004 
3.064990e-004 
3.073205e-004 
3.081080e-004 
3.088608e-004 
3.095778e-004 
3.102579e-004 