# vtk DataFile Version 2.0
2D-ADE data file 
ASCII
DATASET RECTILINEAR_GRID
DIMENSIONS 128 128 1
X_COORDINATES 128 int
0 1 2 3 4 5 6 7 8 9 10 11 12 13 14 15 16 17 18 19 20 21 22 23 24 25 26 27 28 29 30 31 32 33 34 35 36 37 38 39 40 41 42 43 44 45 46 47 48 49 50 51 52 53 54 55 56 57 58 59 60 61 62 63 64 65 66 67 68 69 70 71 72 73 74 75 76 77 78 79 80 81 82 83 84 85 86 87 88 89 90 91 92 93 94 95 96 97 98 99 100 101 102 103 104 105 106 107 108 109 110 111 112 113 114 115 116 117 118 119 120 121 122 123 124 125 126 127 
Y_COORDINATES 128 int
0 1 2 3 4 5 6 7 8 9 10 11 12 13 14 15 16 17 18 19 20 21 22 23 24 25 26 27 28 29 30 31 32 33 34 35 36 37 38 39 40 41 42 43 44 45 46 47 48 49 50 51 52 53 54 55 56 57 58 59 60 61 62 63 64 65 66 67 68 69 70 71 72 73 74 75 76 77 78 79 80 81 82 83 84 85 86 87 88 89 90 91 92 93 94 95 96 97 98 99 100 101 102 103 104 105 106 107 108 109 110 111 112 113 114 115 116 117 118 119 120 121 122 123 124 125 126 127 
Z_COORDINATES 1 int
0
POINT_DATA 16384 
SCALARS density double 1
LOOKUP_TABLE default
1.000000e+000 
1.000000e+000 
1.000000e+000 
1.000000e+000 
1.000000e+000 
1.000000e+000 
1.000000e+000 
1.000000e+000 
1.000000e+000 
1.000000e+000 
1.000000e+000 
1.000000e+000 
1.000000e+000 
1.000000e+000 
1.000000e+000 
1.000000e+000 
1.000000e+000 
1.000000e+000 
1.000000e+000 
1.000000e+000 
1.000000e+000 
1.000000e+000 
1.000000e+000 
1.000000e+000 
1.000000e+000 
1.000000e+000 
1.000000e+000 
1.000000e+000 
1.000000e+000 
1.000000e+000 
1.000000e+000 
1.000000e+000 
1.000000e+000 
1.000000e+000 
1.000000e+000 
1.000000e+000 
1.000000e+000 
1.000000e+000 
1.000000e+000 
1.000000e+000 
1.000000e+000 
1.000000e+000 
1.000000e+000 
1.000000e+000 
1.000000e+000 
1.000000e+000 
1.000000e+000 
1.000000e+000 
1.000000e+000 
1.000000e+000 
1.000000e+000 
1.000000e+000 
1.000000e+000 
1.000000e+000 
1.000000e+000 
1.000000e+000 
1.000000e+000 
1.000000e+000 
1.000000e+000 
1.000000e+000 
1.000000e+000 
1.000000e+000 
1.000000e+000 
1.000000e+000 
1.000000e+000 
1.000000e+000 
1.000000e+000 
1.000000e+000 
1.000000e+000 
1.000000e+000 
1.000000e+000 
1.000000e+000 
1.000000e+000 
1.000000e+000 
1.000000e+000 
1.000000e+000 
1.000000e+000 
1.000000e+000 
1.000000e+000 
1.000000e+000 
1.000000e+000 
1.000000e+000 
1.000000e+000 
1.000000e+000 
1.000000e+000 
1.000000e+000 
1.000000e+000 
1.000000e+000 
1.000000e+000 
1.000000e+000 
1.000000e+000 
1.000000e+000 
1.000000e+000 
1.000000e+000 
1.000000e+000 
1.000000e+000 
1.000000e+000 
1.000000e+000 
1.000000e+000 
1.000000e+000 
1.000000e+000 
1.000000e+000 
1.000000e+000 
1.000000e+000 
1.000000e+000 
1.000000e+000 
1.000000e+000 
1.000000e+000 
1.000000e+000 
1.000000e+000 
1.000000e+000 
1.000000e+000 
1.000000e+000 
1.000000e+000 
1.000000e+000 
1.000000e+000 
1.000000e+000 
1.000000e+000 
1.000000e+000 
1.000000e+000 
1.000000e+000 
1.000000e+000 
1.000000e+000 
1.000000e+000 
1.000000e+000 
1.000000e+000 
1.000000e+000 
1.000000e+000 
1.000000e+000 
3.092972e-004 
3.092151e-004 
3.093009e-004 
3.096217e-004 
3.101883e-004 
3.109606e-004 
3.118985e-004 
3.129669e-004 
3.141342e-004 
3.153714e-004 
3.166531e-004 
3.179570e-004 
3.192639e-004 
3.205569e-004 
3.218216e-004 
3.230456e-004 
3.242184e-004 
3.253309e-004 
3.263755e-004 
3.273459e-004 
3.282366e-004 
3.290433e-004 
3.297622e-004 
3.303904e-004 
3.309255e-004 
3.313655e-004 
3.317090e-004 
3.319546e-004 
3.321014e-004 
3.321489e-004 
3.320965e-004 
3.319438e-004 
3.316908e-004 
3.313371e-004 
3.308829e-004 
3.303283e-004 
3.296733e-004 
3.289183e-004 
3.280635e-004 
3.271094e-004 
3.260564e-004 
3.249052e-004 
3.236565e-004 
3.223111e-004 
3.208702e-004 
3.193349e-004 
3.177066e-004 
3.159869e-004 
3.141777e-004 
3.122810e-004 
3.102993e-004 
3.082352e-004 
3.060916e-004 
3.038718e-004 
3.015795e-004 
2.992186e-004 
2.967935e-004 
2.943087e-004 
2.917694e-004 
2.891809e-004 
2.865491e-004 
2.838801e-004 
2.811803e-004 
2.784566e-004 
2.757161e-004 
2.729664e-004 
2.702151e-004 
2.674703e-004 
2.647401e-004 
2.620331e-004 
2.593578e-004 
2.567229e-004 
2.541372e-004 
2.516095e-004 
2.491486e-004 
2.467632e-004 
2.444619e-004 
2.422532e-004 
2.401451e-004 
2.381457e-004 
2.362624e-004 
2.345024e-004 
2.328724e-004 
2.313785e-004 
2.300264e-004 
2.288210e-004 
2.277667e-004 
2.268671e-004 
2.261250e-004 
2.255425e-004 
2.251209e-004 
2.248605e-004 
2.247607e-004 
2.248204e-004 
2.250371e-004 
2.254075e-004 
2.259277e-004 
2.265924e-004 
2.273957e-004 
2.283306e-004 
2.293894e-004 
2.305633e-004 
2.318428e-004 
2.332175e-004 
2.346760e-004 
2.362065e-004 
2.377959e-004 
2.394308e-004 
2.410967e-004 
2.427787e-004 
2.444610e-004 
2.461270e-004 
2.477597e-004 
2.493412e-004 
2.508529e-004 
2.522757e-004 
2.535900e-004 
2.547757e-004 
2.558123e-004 
2.566800e-004 
2.573605e-004 
2.578375e-004 
2.580983e-004 
2.581435e-004 
2.580455e-004 
2.579010e-004 
1.000000e+000 
1.000000e+000 
3.093791e-004 
3.092969e-004 
3.093973e-004 
3.097087e-004 
3.102149e-004 
3.108991e-004 
3.117338e-004 
3.126904e-004 
3.137408e-004 
3.148599e-004 
3.160247e-004 
3.172149e-004 
3.184123e-004 
3.196010e-004 
3.207673e-004 
3.218990e-004 
3.229860e-004 
3.240191e-004 
3.249909e-004 
3.258947e-004 
3.267253e-004 
3.274778e-004 
3.281486e-004 
3.287344e-004 
3.292326e-004 
3.296410e-004 
3.299579e-004 
3.301820e-004 
3.303120e-004 
3.303473e-004 
3.302870e-004 
3.301309e-004 
3.298784e-004 
3.295295e-004 
3.290840e-004 
3.285419e-004 
3.279033e-004 
3.271685e-004 
3.263376e-004 
3.254111e-004 
3.243895e-004 
3.232733e-004 
3.220633e-004 
3.207603e-004 
3.193655e-004 
3.178799e-004 
3.163050e-004 
3.146424e-004 
3.128939e-004 
3.110616e-004 
3.091478e-004 
3.071551e-004 
3.050865e-004 
3.029451e-004 
3.007345e-004 
2.984585e-004 
2.961214e-004 
2.937276e-004 
2.912820e-004 
2.887900e-004 
2.862569e-004 
2.836889e-004 
2.810921e-004 
2.784730e-004 
2.758386e-004 
2.731960e-004 
2.705526e-004 
2.679162e-004 
2.652945e-004 
2.626956e-004 
2.601277e-004 
2.575991e-004 
2.551183e-004 
2.526934e-004 
2.503330e-004 
2.480453e-004 
2.458385e-004 
2.437205e-004 
2.416991e-004 
2.397818e-004 
2.379756e-004 
2.362874e-004 
2.347235e-004 
2.332895e-004 
2.319909e-004 
2.308322e-004 
2.298175e-004 
2.289501e-004 
2.282326e-004 
2.276669e-004 
2.272541e-004 
2.269944e-004 
2.268872e-004 
2.269312e-004 
2.271239e-004 
2.274623e-004 
2.279422e-004 
2.285587e-004 
2.293060e-004 
2.301774e-004 
2.311653e-004 
2.322613e-004 
2.334563e-004 
2.347402e-004 
2.361023e-004 
2.375310e-004 
2.390141e-004 
2.405386e-004 
2.420908e-004 
2.436565e-004 
2.452207e-004 
2.467678e-004 
2.482819e-004 
2.497462e-004 
2.511437e-004 
2.524568e-004 
2.536676e-004 
2.547585e-004 
2.557120e-004 
2.565113e-004 
2.571414e-004 
2.575913e-004 
2.578582e-004 
2.579517e-004 
2.579014e-004 
2.577570e-004 
1.000000e+000 
1.000000e+000 
3.092929e-004 
3.091962e-004 
3.092967e-004 
3.095951e-004 
3.100634e-004 
3.106897e-004 
3.114504e-004 
3.123217e-004 
3.132801e-004 
3.143036e-004 
3.153717e-004 
3.164659e-004 
3.175695e-004 
3.186677e-004 
3.197474e-004 
3.207973e-004 
3.218072e-004 
3.227686e-004 
3.236740e-004 
3.245169e-004 
3.252919e-004 
3.259942e-004 
3.266201e-004 
3.271661e-004 
3.276295e-004 
3.280081e-004 
3.283000e-004 
3.285036e-004 
3.286178e-004 
3.286415e-004 
3.285739e-004 
3.284146e-004 
3.281630e-004 
3.278189e-004 
3.273821e-004 
3.268524e-004 
3.262301e-004 
3.255151e-004 
3.247078e-004 
3.238085e-004 
3.228176e-004 
3.217357e-004 
3.205636e-004 
3.193020e-004 
3.179520e-004 
3.165148e-004 
3.149917e-004 
3.133844e-004 
3.116945e-004 
3.099242e-004 
3.080757e-004 
3.061516e-004 
3.041547e-004 
3.020882e-004 
2.999554e-004 
2.977602e-004 
2.955065e-004 
2.931988e-004 
2.908419e-004 
2.884406e-004 
2.860005e-004 
2.835273e-004 
2.810269e-004 
2.785057e-004 
2.759702e-004 
2.734274e-004 
2.708844e-004 
2.683484e-004 
2.658272e-004 
2.633283e-004 
2.608596e-004 
2.584291e-004 
2.560447e-004 
2.537145e-004 
2.514464e-004 
2.492483e-004 
2.471281e-004 
2.450932e-004 
2.431510e-004 
2.413088e-004 
2.395731e-004 
2.379505e-004 
2.364468e-004 
2.350676e-004 
2.338178e-004 
2.327018e-004 
2.317233e-004 
2.308855e-004 
2.301907e-004 
2.296408e-004 
2.292365e-004 
2.289781e-004 
2.288649e-004 
2.288954e-004 
2.290673e-004 
2.293776e-004 
2.298221e-004 
2.303962e-004 
2.310940e-004 
2.319093e-004 
2.328345e-004 
2.338618e-004 
2.349822e-004 
2.361860e-004 
2.374630e-004 
2.388021e-004 
2.401916e-004 
2.416192e-004 
2.430718e-004 
2.445359e-004 
2.459973e-004 
2.474416e-004 
2.488535e-004 
2.502176e-004 
2.515181e-004 
2.527389e-004 
2.538641e-004 
2.548775e-004 
2.557640e-004 
2.565095e-004 
2.571016e-004 
2.575312e-004 
2.577952e-004 
2.579021e-004 
2.578511e-004 
2.576589e-004 
1.000000e+000 
1.000000e+000 
3.089711e-004 
3.088835e-004 
3.089983e-004 
3.092977e-004 
3.097521e-004 
3.103452e-004 
3.110565e-004 
3.118667e-004 
3.127558e-004 
3.137044e-004 
3.146945e-004 
3.157094e-004 
3.167341e-004 
3.177549e-004 
3.187596e-004 
3.197376e-004 
3.206793e-004 
3.215764e-004 
3.224219e-004 
3.232093e-004 
3.239334e-004 
3.245895e-004 
3.251738e-004 
3.256828e-004 
3.261139e-004 
3.264646e-004 
3.267330e-004 
3.269175e-004 
3.270167e-004 
3.270297e-004 
3.269555e-004 
3.267934e-004 
3.265430e-004 
3.262039e-004 
3.257759e-004 
3.252587e-004 
3.246525e-004 
3.239572e-004 
3.231731e-004 
3.223005e-004 
3.213398e-004 
3.202915e-004 
3.191564e-004 
3.179351e-004 
3.166288e-004 
3.152386e-004 
3.137657e-004 
3.122118e-004 
3.105786e-004 
3.088680e-004 
3.070822e-004 
3.052239e-004 
3.032956e-004 
3.013005e-004 
2.992418e-004 
2.971232e-004 
2.949486e-004 
2.927223e-004 
2.904489e-004 
2.881331e-004 
2.857802e-004 
2.833958e-004 
2.809855e-004 
2.785555e-004 
2.761121e-004 
2.736620e-004 
2.712119e-004 
2.687690e-004 
2.663405e-004 
2.639338e-004 
2.615564e-004 
2.592160e-004 
2.569201e-004 
2.546766e-004 
2.524929e-004 
2.503767e-004 
2.483353e-004 
2.463762e-004 
2.445062e-004 
2.427322e-004 
2.410607e-004 
2.394976e-004 
2.380488e-004 
2.367193e-004 
2.355139e-004 
2.344367e-004 
2.334913e-004 
2.326806e-004 
2.320068e-004 
2.314715e-004 
2.310755e-004 
2.308189e-004 
2.307010e-004 
2.307203e-004 
2.308744e-004 
2.311604e-004 
2.315742e-004 
2.321113e-004 
2.327661e-004 
2.335323e-004 
2.344029e-004 
2.353700e-004 
2.364252e-004 
2.375592e-004 
2.387620e-004 
2.400231e-004 
2.413313e-004 
2.426748e-004 
2.440413e-004 
2.454178e-004 
2.467912e-004 
2.481476e-004 
2.494729e-004 
2.507527e-004 
2.519724e-004 
2.531173e-004 
2.541729e-004 
2.551248e-004 
2.559594e-004 
2.566642e-004 
2.572284e-004 
2.576442e-004 
2.579053e-004 
2.580105e-004 
2.579437e-004 
2.577016e-004 
1.000000e+000 
1.000000e+000 
3.084009e-004 
3.083739e-004 
3.085285e-004 
3.088455e-004 
3.093022e-004 
3.098811e-004 
3.105639e-004 
3.113337e-004 
3.121729e-004 
3.130648e-004 
3.139936e-004 
3.149446e-004 
3.159041e-004 
3.168597e-004 
3.178003e-004 
3.187160e-004 
3.195980e-004 
3.204383e-004 
3.212302e-004 
3.219678e-004 
3.226458e-004 
3.232599e-004 
3.238060e-004 
3.242811e-004 
3.246823e-004 
3.250072e-004 
3.252539e-004 
3.254207e-004 
3.255063e-004 
3.255095e-004 
3.254294e-004 
3.252652e-004 
3.250165e-004 
3.246827e-004 
3.242636e-004 
3.237590e-004 
3.231688e-004 
3.224930e-004 
3.217319e-004 
3.208856e-004 
3.199545e-004 
3.189392e-004 
3.178402e-004 
3.166584e-004 
3.153946e-004 
3.140500e-004 
3.126258e-004 
3.111235e-004 
3.095449e-004 
3.078918e-004 
3.061663e-004 
3.043709e-004 
3.025082e-004 
3.005811e-004 
2.985929e-004 
2.965470e-004 
2.944473e-004 
2.922978e-004 
2.901030e-004 
2.878676e-004 
2.855965e-004 
2.832950e-004 
2.809688e-004 
2.786238e-004 
2.762659e-004 
2.739017e-004 
2.715377e-004 
2.691806e-004 
2.668376e-004 
2.645156e-004 
2.622220e-004 
2.599641e-004 
2.577492e-004 
2.555847e-004 
2.534780e-004 
2.514363e-004 
2.494668e-004 
2.475765e-004 
2.457720e-004 
2.440599e-004 
2.424464e-004 
2.409373e-004 
2.395381e-004 
2.382536e-004 
2.370885e-004 
2.360466e-004 
2.351313e-004 
2.343453e-004 
2.336908e-004 
2.331693e-004 
2.327814e-004 
2.325271e-004 
2.324057e-004 
2.324157e-004 
2.325549e-004 
2.328202e-004 
2.332077e-004 
2.337130e-004 
2.343306e-004 
2.350545e-004 
2.358779e-004 
2.367931e-004 
2.377920e-004 
2.388657e-004 
2.400046e-004 
2.411986e-004 
2.424370e-004 
2.437085e-004 
2.450014e-004 
2.463036e-004 
2.476023e-004 
2.488848e-004 
2.501378e-004 
2.513478e-004 
2.525014e-004 
2.535851e-004 
2.545854e-004 
2.554896e-004 
2.562851e-004 
2.569607e-004 
2.575059e-004 
2.579124e-004 
2.581713e-004 
2.582755e-004 
2.582079e-004 
2.579564e-004 
1.000000e+000 
1.000000e+000 
3.076202e-004 
3.076827e-004 
3.078984e-004 
3.082533e-004 
3.087301e-004 
3.093126e-004 
3.099848e-004 
3.107316e-004 
3.115379e-004 
3.123894e-004 
3.132721e-004 
3.141730e-004 
3.150799e-004 
3.159818e-004 
3.168687e-004 
3.177313e-004 
3.185615e-004 
3.193522e-004 
3.200970e-004 
3.207902e-004 
3.214269e-004 
3.220030e-004 
3.225147e-004 
3.229589e-004 
3.233328e-004 
3.236342e-004 
3.238611e-004 
3.240119e-004 
3.240851e-004 
3.240796e-004 
3.239945e-004 
3.238290e-004 
3.235825e-004 
3.232545e-004 
3.228446e-004 
3.223527e-004 
3.217786e-004 
3.211222e-004 
3.203838e-004 
3.195634e-004 
3.186615e-004 
3.176785e-004 
3.166149e-004 
3.154715e-004 
3.142491e-004 
3.129488e-004 
3.115718e-004 
3.101195e-004 
3.085935e-004 
3.069957e-004 
3.053280e-004 
3.035929e-004 
3.017928e-004 
2.999305e-004 
2.980093e-004 
2.960323e-004 
2.940034e-004 
2.919263e-004 
2.898055e-004 
2.876454e-004 
2.854508e-004 
2.832269e-004 
2.809790e-004 
2.787128e-004 
2.764342e-004 
2.741494e-004 
2.718647e-004 
2.695867e-004 
2.673221e-004 
2.650778e-004 
2.628609e-004 
2.606782e-004 
2.585371e-004 
2.564446e-004 
2.544077e-004 
2.524336e-004 
2.505291e-004 
2.487008e-004 
2.469555e-004 
2.452992e-004 
2.437380e-004 
2.422776e-004 
2.409230e-004 
2.396791e-004 
2.385502e-004 
2.375401e-004 
2.366521e-004 
2.358886e-004 
2.352518e-004 
2.347430e-004 
2.343629e-004 
2.341113e-004 
2.339877e-004 
2.339903e-004 
2.341172e-004 
2.343651e-004 
2.347305e-004 
2.352088e-004 
2.357949e-004 
2.364828e-004 
2.372660e-004 
2.381370e-004 
2.390880e-004 
2.401104e-004 
2.411950e-004 
2.423322e-004 
2.435115e-004 
2.447224e-004 
2.459536e-004 
2.471936e-004 
2.484304e-004 
2.496520e-004 
2.508459e-004 
2.519996e-004 
2.531006e-004 
2.541363e-004 
2.550946e-004 
2.559636e-004 
2.567317e-004 
2.573884e-004 
2.579237e-004 
2.583284e-004 
2.585923e-004 
2.587054e-004 
2.586530e-004 
2.584231e-004 
1.000000e+000 
1.000000e+000 
3.066668e-004 
3.068355e-004 
3.071300e-004 
3.075404e-004 
3.080530e-004 
3.086544e-004 
3.093312e-004 
3.100703e-004 
3.108587e-004 
3.116839e-004 
3.125338e-004 
3.133971e-004 
3.142631e-004 
3.151219e-004 
3.159644e-004 
3.167825e-004 
3.175689e-004 
3.183168e-004 
3.190205e-004 
3.196747e-004 
3.202750e-004 
3.208173e-004 
3.212981e-004 
3.217146e-004 
3.220640e-004 
3.223443e-004 
3.225534e-004 
3.226898e-004 
3.227522e-004 
3.227393e-004 
3.226502e-004 
3.224842e-004 
3.222406e-004 
3.219188e-004 
3.215186e-004 
3.210396e-004 
3.204817e-004 
3.198447e-004 
3.191288e-004 
3.183342e-004 
3.174610e-004 
3.165097e-004 
3.154807e-004 
3.143748e-004 
3.131928e-004 
3.119355e-004 
3.106042e-004 
3.092002e-004 
3.077250e-004 
3.061803e-004 
3.045682e-004 
3.028907e-004 
3.011503e-004 
2.993498e-004 
2.974921e-004 
2.955804e-004 
2.936182e-004 
2.916094e-004 
2.895580e-004 
2.874685e-004 
2.853454e-004 
2.831936e-004 
2.810185e-004 
2.788254e-004 
2.766201e-004 
2.744085e-004 
2.721968e-004 
2.699913e-004 
2.677985e-004 
2.656252e-004 
2.634780e-004 
2.613638e-004 
2.592895e-004 
2.572621e-004 
2.552884e-004 
2.533751e-004 
2.515291e-004 
2.497567e-004 
2.480644e-004 
2.464581e-004 
2.449438e-004 
2.435268e-004 
2.422121e-004 
2.410045e-004 
2.399081e-004 
2.389265e-004 
2.380629e-004 
2.373197e-004 
2.366990e-004 
2.362020e-004 
2.358293e-004 
2.355809e-004 
2.354559e-004 
2.354529e-004 
2.355698e-004 
2.358036e-004 
2.361506e-004 
2.366064e-004 
2.371662e-004 
2.378240e-004 
2.385734e-004 
2.394074e-004 
2.403184e-004 
2.412980e-004 
2.423373e-004 
2.434271e-004 
2.445576e-004 
2.457184e-004 
2.468989e-004 
2.480881e-004 
2.492749e-004 
2.504476e-004 
2.515946e-004 
2.527044e-004 
2.537651e-004 
2.547652e-004 
2.556934e-004 
2.565386e-004 
2.572902e-004 
2.579380e-004 
2.584724e-004 
2.588838e-004 
2.591623e-004 
2.592975e-004 
2.592762e-004 
2.590887e-004 
1.000000e+000 
1.000000e+000 
3.055734e-004 
3.058593e-004 
3.062457e-004 
3.067251e-004 
3.072870e-004 
3.079209e-004 
3.086157e-004 
3.093603e-004 
3.101436e-004 
3.109550e-004 
3.117841e-004 
3.126209e-004 
3.134563e-004 
3.142816e-004 
3.150887e-004 
3.158704e-004 
3.166201e-004 
3.173319e-004 
3.180004e-004 
3.186209e-004 
3.191893e-004 
3.197019e-004 
3.201556e-004 
3.205475e-004 
3.208753e-004 
3.211368e-004 
3.213303e-004 
3.214542e-004 
3.215073e-004 
3.214883e-004 
3.213965e-004 
3.212309e-004 
3.209909e-004 
3.206761e-004 
3.202860e-004 
3.198202e-004 
3.192786e-004 
3.186612e-004 
3.179677e-004 
3.171985e-004 
3.163537e-004 
3.154335e-004 
3.144386e-004 
3.133693e-004 
3.122266e-004 
3.110112e-004 
3.097242e-004 
3.083669e-004 
3.069407e-004 
3.054471e-004 
3.038882e-004 
3.022658e-004 
3.005825e-004 
2.988406e-004 
2.970432e-004 
2.951932e-004 
2.932940e-004 
2.913494e-004 
2.893632e-004 
2.873396e-004 
2.852831e-004 
2.831985e-004 
2.810908e-004 
2.789653e-004 
2.768275e-004 
2.746832e-004 
2.725383e-004 
2.703991e-004 
2.682717e-004 
2.661628e-004 
2.640789e-004 
2.620266e-004 
2.600126e-004 
2.580438e-004 
2.561267e-004 
2.542679e-004 
2.524741e-004 
2.507516e-004 
2.491065e-004 
2.475447e-004 
2.460719e-004 
2.446934e-004 
2.434141e-004 
2.422386e-004 
2.411709e-004 
2.402146e-004 
2.393727e-004 
2.386477e-004 
2.380414e-004 
2.375552e-004 
2.371895e-004 
2.369443e-004 
2.368189e-004 
2.368118e-004 
2.369209e-004 
2.371432e-004 
2.374753e-004 
2.379129e-004 
2.384511e-004 
2.390842e-004 
2.398060e-004 
2.406098e-004 
2.414879e-004 
2.424325e-004 
2.434351e-004 
2.444865e-004 
2.455774e-004 
2.466980e-004 
2.478381e-004 
2.489873e-004 
2.501348e-004 
2.512698e-004 
2.523814e-004 
2.534586e-004 
2.544905e-004 
2.554662e-004 
2.563753e-004 
2.572074e-004 
2.579525e-004 
2.586012e-004 
2.591440e-004 
2.595717e-004 
2.598748e-004 
2.600441e-004 
2.600677e-004 
2.599378e-004 
1.000000e+000 
1.000000e+000 
3.043698e-004 
3.047805e-004 
3.052681e-004 
3.058268e-004 
3.064491e-004 
3.071268e-004 
3.078508e-004 
3.086121e-004 
3.094015e-004 
3.102100e-004 
3.110287e-004 
3.118491e-004 
3.126633e-004 
3.134638e-004 
3.142437e-004 
3.149964e-004 
3.157163e-004 
3.163980e-004 
3.170370e-004 
3.176288e-004 
3.181699e-004 
3.186570e-004 
3.190870e-004 
3.194576e-004 
3.197666e-004 
3.200119e-004 
3.201919e-004 
3.203053e-004 
3.203507e-004 
3.203271e-004 
3.202337e-004 
3.200696e-004 
3.198342e-004 
3.195270e-004 
3.191475e-004 
3.186955e-004 
3.181705e-004 
3.175726e-004 
3.169017e-004 
3.161577e-004 
3.153409e-004 
3.144515e-004 
3.134899e-004 
3.124566e-004 
3.113522e-004 
3.101775e-004 
3.089335e-004 
3.076213e-004 
3.062423e-004 
3.047980e-004 
3.032900e-004 
3.017204e-004 
3.000914e-004 
2.984053e-004 
2.966650e-004 
2.948733e-004 
2.930336e-004 
2.911491e-004 
2.892239e-004 
2.872619e-004 
2.852674e-004 
2.832450e-004 
2.811997e-004 
2.791364e-004 
2.770607e-004 
2.749780e-004 
2.728941e-004 
2.708151e-004 
2.687471e-004 
2.666964e-004 
2.646695e-004 
2.626728e-004 
2.607129e-004 
2.587963e-004 
2.569296e-004 
2.551193e-004 
2.533718e-004 
2.516932e-004 
2.500897e-004 
2.485670e-004 
2.471307e-004 
2.457860e-004 
2.445376e-004 
2.433902e-004 
2.423476e-004 
2.414134e-004 
2.405905e-004 
2.398814e-004 
2.392879e-004 
2.388113e-004 
2.384521e-004 
2.382102e-004 
2.380850e-004 
2.380751e-004 
2.381782e-004 
2.383917e-004 
2.387120e-004 
2.391351e-004 
2.396561e-004 
2.402695e-004 
2.409694e-004 
2.417490e-004 
2.426011e-004 
2.435180e-004 
2.444915e-004 
2.455129e-004 
2.465731e-004 
2.476627e-004 
2.487719e-004 
2.498908e-004 
2.510093e-004 
2.521170e-004 
2.532036e-004 
2.542588e-004 
2.552723e-004 
2.562341e-004 
2.571342e-004 
2.579631e-004 
2.587114e-004 
2.593701e-004 
2.599304e-004 
2.603837e-004 
2.607212e-004 
2.609347e-004 
2.610146e-004 
2.609541e-004 
1.000000e+000 
1.000000e+000 
3.030832e-004 
3.036235e-004 
3.042186e-004 
3.048644e-004 
3.055558e-004 
3.062864e-004 
3.070492e-004 
3.078369e-004 
3.086420e-004 
3.094569e-004 
3.102743e-004 
3.110872e-004 
3.118886e-004 
3.126722e-004 
3.134321e-004 
3.141628e-004 
3.148592e-004 
3.155167e-004 
3.161314e-004 
3.166994e-004 
3.172176e-004 
3.176830e-004 
3.180930e-004 
3.184455e-004 
3.187384e-004 
3.189701e-004 
3.191389e-004 
3.192437e-004 
3.192833e-004 
3.192566e-004 
3.191630e-004 
3.190015e-004 
3.187716e-004 
3.184729e-004 
3.181047e-004 
3.176668e-004 
3.171589e-004 
3.165807e-004 
3.159323e-004 
3.152136e-004 
3.144246e-004 
3.135655e-004 
3.126367e-004 
3.116385e-004 
3.105716e-004 
3.094366e-004 
3.082343e-004 
3.069658e-004 
3.056324e-004 
3.042353e-004 
3.027763e-004 
3.012571e-004 
2.996799e-004 
2.980469e-004 
2.963606e-004 
2.946240e-004 
2.928401e-004 
2.910122e-004 
2.891439e-004 
2.872392e-004 
2.853023e-004 
2.833375e-004 
2.813496e-004 
2.793435e-004 
2.773245e-004 
2.752979e-004 
2.732695e-004 
2.712450e-004 
2.692305e-004 
2.672322e-004 
2.652562e-004 
2.633091e-004 
2.613971e-004 
2.595268e-004 
2.577046e-004 
2.559368e-004 
2.542298e-004 
2.525896e-004 
2.510223e-004 
2.495335e-004 
2.481287e-004 
2.468130e-004 
2.455913e-004 
2.444680e-004 
2.434469e-004 
2.425316e-004 
2.417250e-004 
2.410296e-004 
2.404471e-004 
2.399789e-004 
2.396255e-004 
2.393868e-004 
2.392623e-004 
2.392504e-004 
2.393492e-004 
2.395560e-004 
2.398674e-004 
2.402793e-004 
2.407871e-004 
2.413855e-004 
2.420685e-004 
2.428297e-004 
2.436620e-004 
2.445580e-004 
2.455097e-004 
2.465087e-004 
2.475463e-004 
2.486133e-004 
2.497006e-004 
2.507984e-004 
2.518972e-004 
2.529872e-004 
2.540585e-004 
2.551015e-004 
2.561065e-004 
2.570639e-004 
2.579646e-004 
2.587995e-004 
2.595599e-004 
2.602374e-004 
2.608237e-004 
2.613112e-004 
2.616918e-004 
2.619584e-004 
2.621034e-004 
2.621211e-004 
1.000000e+000 
1.000000e+000 
3.017385e-004 
3.024107e-004 
3.031174e-004 
3.038561e-004 
3.046232e-004 
3.054141e-004 
3.062235e-004 
3.070456e-004 
3.078745e-004 
3.087041e-004 
3.095282e-004 
3.103412e-004 
3.111372e-004 
3.119111e-004 
3.126577e-004 
3.133726e-004 
3.140513e-004 
3.146901e-004 
3.152855e-004 
3.158343e-004 
3.163338e-004 
3.167813e-004 
3.171748e-004 
3.175123e-004 
3.177920e-004 
3.180125e-004 
3.181725e-004 
3.182707e-004 
3.183062e-004 
3.182781e-004 
3.181856e-004 
3.180281e-004 
3.178048e-004 
3.175153e-004 
3.171592e-004 
3.167360e-004 
3.162456e-004 
3.156875e-004 
3.150617e-004 
3.143682e-004 
3.136068e-004 
3.127778e-004 
3.118813e-004 
3.109177e-004 
3.098874e-004 
3.087910e-004 
3.076293e-004 
3.064032e-004 
3.051137e-004 
3.037622e-004 
3.023501e-004 
3.008791e-004 
2.993513e-004 
2.977686e-004 
2.961336e-004 
2.944489e-004 
2.927174e-004 
2.909425e-004 
2.891274e-004 
2.872760e-004 
2.853923e-004 
2.834806e-004 
2.815455e-004 
2.795917e-004 
2.776243e-004 
2.756487e-004 
2.736703e-004 
2.716948e-004 
2.697282e-004 
2.677764e-004 
2.658457e-004 
2.639423e-004 
2.620725e-004 
2.602426e-004 
2.584591e-004 
2.567282e-004 
2.550560e-004 
2.534488e-004 
2.519124e-004 
2.504524e-004 
2.490743e-004 
2.477832e-004 
2.465838e-004 
2.454806e-004 
2.444775e-004 
2.435779e-004 
2.427849e-004 
2.421008e-004 
2.415275e-004 
2.410663e-004 
2.407178e-004 
2.404820e-004 
2.403583e-004 
2.403454e-004 
2.404412e-004 
2.406432e-004 
2.409481e-004 
2.413519e-004 
2.418501e-004 
2.424374e-004 
2.431082e-004 
2.438562e-004 
2.446744e-004 
2.455557e-004 
2.464923e-004 
2.474761e-004 
2.484985e-004 
2.495510e-004 
2.506244e-004 
2.517097e-004 
2.527975e-004 
2.538787e-004 
2.549437e-004 
2.559835e-004 
2.569889e-004 
2.579509e-004 
2.588609e-004 
2.597104e-004 
2.604912e-004 
2.611956e-004 
2.618161e-004 
2.623454e-004 
2.627768e-004 
2.631039e-004 
2.633206e-004 
2.634227e-004 
1.000000e+000 
1.000000e+000 
3.003575e-004 
3.011626e-004 
3.019836e-004 
3.028191e-004 
3.036670e-004 
3.045240e-004 
3.053863e-004 
3.062495e-004 
3.071091e-004 
3.079601e-004 
3.087979e-004 
3.096177e-004 
3.104150e-004 
3.111854e-004 
3.119248e-004 
3.126295e-004 
3.132960e-004 
3.139211e-004 
3.145019e-004 
3.150358e-004 
3.155204e-004 
3.159539e-004 
3.163341e-004 
3.166597e-004 
3.169291e-004 
3.171410e-004 
3.172943e-004 
3.173881e-004 
3.174214e-004 
3.173935e-004 
3.173037e-004 
3.171513e-004 
3.169357e-004 
3.166565e-004 
3.163133e-004 
3.159055e-004 
3.154330e-004 
3.148954e-004 
3.142925e-004 
3.136242e-004 
3.128905e-004 
3.120912e-004 
3.112267e-004 
3.102970e-004 
3.093027e-004 
3.082440e-004 
3.071218e-004 
3.059367e-004 
3.046897e-004 
3.033820e-004 
3.020150e-004 
3.005902e-004 
2.991093e-004 
2.975745e-004 
2.959879e-004 
2.943522e-004 
2.926700e-004 
2.909445e-004 
2.891790e-004 
2.873770e-004 
2.855425e-004 
2.836796e-004 
2.817927e-004 
2.798865e-004 
2.779659e-004 
2.760362e-004 
2.741027e-004 
2.721709e-004 
2.702467e-004 
2.683360e-004 
2.664450e-004 
2.645797e-004 
2.627463e-004 
2.609513e-004 
2.592009e-004 
2.575013e-004 
2.558587e-004 
2.542791e-004 
2.527684e-004 
2.513322e-004 
2.499761e-004 
2.487050e-004 
2.475238e-004 
2.464368e-004 
2.454481e-004 
2.445610e-004 
2.437787e-004 
2.431035e-004 
2.425374e-004 
2.420817e-004 
2.417371e-004 
2.415036e-004 
2.413807e-004 
2.413672e-004 
2.414610e-004 
2.416598e-004 
2.419602e-004 
2.423585e-004 
2.428502e-004 
2.434303e-004 
2.440932e-004 
2.448326e-004 
2.456420e-004 
2.465143e-004 
2.474419e-004 
2.484169e-004 
2.494312e-004 
2.504763e-004 
2.515435e-004 
2.526241e-004 
2.537091e-004 
2.547896e-004 
2.558567e-004 
2.569017e-004 
2.579159e-004 
2.588907e-004 
2.598181e-004 
2.606902e-004 
2.614992e-004 
2.622380e-004 
2.628996e-004 
2.634778e-004 
2.639663e-004 
2.643600e-004 
2.646538e-004 
2.648444e-004 
1.000000e+000 
1.000000e+000 
2.989602e-004 
2.998980e-004 
3.008347e-004 
3.017697e-004 
3.027020e-004 
3.036296e-004 
3.045499e-004 
3.054597e-004 
3.063556e-004 
3.072340e-004 
3.080913e-004 
3.089239e-004 
3.097281e-004 
3.105006e-004 
3.112382e-004 
3.119379e-004 
3.125970e-004 
3.132130e-004 
3.137835e-004 
3.143066e-004 
3.147803e-004 
3.152030e-004 
3.155734e-004 
3.158900e-004 
3.161518e-004 
3.163576e-004 
3.165066e-004 
3.165981e-004 
3.166311e-004 
3.166051e-004 
3.165194e-004 
3.163735e-004 
3.161669e-004 
3.158991e-004 
3.155696e-004 
3.151780e-004 
3.147240e-004 
3.142073e-004 
3.136276e-004 
3.129847e-004 
3.122785e-004 
3.115089e-004 
3.106760e-004 
3.097799e-004 
3.088208e-004 
3.077990e-004 
3.067152e-004 
3.055700e-004 
3.043642e-004 
3.030988e-004 
3.017751e-004 
3.003944e-004 
2.989584e-004 
2.974689e-004 
2.959282e-004 
2.943385e-004 
2.927026e-004 
2.910233e-004 
2.893038e-004 
2.875475e-004 
2.857582e-004 
2.839400e-004 
2.820971e-004 
2.802340e-004 
2.783556e-004 
2.764669e-004 
2.745732e-004 
2.726801e-004 
2.707931e-004 
2.689182e-004 
2.670614e-004 
2.652288e-004 
2.634265e-004 
2.616609e-004 
2.599381e-004 
2.582644e-004 
2.566460e-004 
2.550888e-004 
2.535988e-004 
2.521816e-004 
2.508427e-004 
2.495872e-004 
2.484199e-004 
2.473452e-004 
2.463672e-004 
2.454893e-004 
2.447148e-004 
2.440460e-004 
2.434850e-004 
2.430331e-004 
2.426911e-004 
2.424592e-004 
2.423368e-004 
2.423228e-004 
2.424153e-004 
2.426120e-004 
2.429098e-004 
2.433048e-004 
2.437929e-004 
2.443689e-004 
2.450276e-004 
2.457628e-004 
2.465680e-004 
2.474364e-004 
2.483606e-004 
2.493330e-004 
2.503455e-004 
2.513900e-004 
2.524580e-004 
2.535411e-004 
2.546307e-004 
2.557183e-004 
2.567952e-004 
2.578531e-004 
2.588838e-004 
2.598792e-004 
2.608315e-004 
2.617334e-004 
2.625777e-004 
2.633577e-004 
2.640670e-004 
2.647000e-004 
2.652513e-004 
2.657163e-004 
2.660912e-004 
2.663732e-004 
1.000000e+000 
1.000000e+000 
2.975646e-004 
2.986343e-004 
2.996872e-004 
3.007233e-004 
3.017427e-004 
3.027442e-004 
3.037263e-004 
3.046870e-004 
3.056240e-004 
3.065347e-004 
3.074165e-004 
3.082668e-004 
3.090830e-004 
3.098626e-004 
3.106032e-004 
3.113026e-004 
3.119587e-004 
3.125698e-004 
3.131341e-004 
3.136501e-004 
3.141164e-004 
3.145319e-004 
3.148954e-004 
3.152059e-004 
3.154627e-004 
3.156650e-004 
3.158120e-004 
3.159032e-004 
3.159378e-004 
3.159155e-004 
3.158356e-004 
3.156976e-004 
3.155012e-004 
3.152458e-004 
3.149310e-004 
3.145564e-004 
3.141217e-004 
3.136264e-004 
3.130703e-004 
3.124531e-004 
3.117745e-004 
3.110345e-004 
3.102330e-004 
3.093700e-004 
3.084456e-004 
3.074600e-004 
3.064138e-004 
3.053074e-004 
3.041414e-004 
3.029168e-004 
3.016347e-004 
3.002963e-004 
2.989031e-004 
2.974568e-004 
2.959594e-004 
2.944131e-004 
2.928205e-004 
2.911842e-004 
2.895074e-004 
2.877933e-004 
2.860455e-004 
2.842680e-004 
2.824649e-004 
2.806406e-004 
2.787998e-004 
2.769476e-004 
2.750890e-004 
2.732295e-004 
2.713747e-004 
2.695305e-004 
2.677027e-004 
2.658975e-004 
2.641210e-004 
2.623794e-004 
2.606790e-004 
2.590260e-004 
2.574265e-004 
2.558866e-004 
2.544123e-004 
2.530092e-004 
2.516829e-004 
2.504384e-004 
2.492808e-004 
2.482144e-004 
2.472434e-004 
2.463714e-004 
2.456016e-004 
2.449365e-004 
2.443782e-004 
2.439282e-004 
2.435874e-004 
2.433560e-004 
2.432335e-004 
2.432190e-004 
2.433106e-004 
2.435062e-004 
2.438026e-004 
2.441962e-004 
2.446829e-004 
2.452578e-004 
2.459156e-004 
2.466503e-004 
2.474557e-004 
2.483249e-004 
2.492508e-004 
2.502260e-004 
2.512426e-004 
2.522926e-004 
2.533679e-004 
2.544603e-004 
2.555614e-004 
2.566630e-004 
2.577569e-004 
2.588349e-004 
2.598893e-004 
2.609123e-004 
2.618965e-004 
2.628350e-004 
2.637211e-004 
2.645484e-004 
2.653113e-004 
2.660044e-004 
2.666231e-004 
2.671635e-004 
2.676224e-004 
2.679976e-004 
1.000000e+000 
1.000000e+000 
2.961872e-004 
2.973874e-004 
2.985563e-004 
2.996944e-004 
3.008024e-004 
3.018803e-004 
3.029273e-004 
3.039424e-004 
3.049243e-004 
3.058713e-004 