# vtk DataFile Version 2.0
2D-ADE data file 
ASCII
DATASET RECTILINEAR_GRID
DIMENSIONS 128 128 1
X_COORDINATES 128 int
0 1 2 3 4 5 6 7 8 9 10 11 12 13 14 15 16 17 18 19 20 21 22 23 24 25 26 27 28 29 30 31 32 33 34 35 36 37 38 39 40 41 42 43 44 45 46 47 48 49 50 51 52 53 54 55 56 57 58 59 60 61 62 63 64 65 66 67 68 69 70 71 72 73 74 75 76 77 78 79 80 81 82 83 84 85 86 87 88 89 90 91 92 93 94 95 96 97 98 99 100 101 102 103 104 105 106 107 108 109 110 111 112 113 114 115 116 117 118 119 120 121 122 123 124 125 126 127 
Y_COORDINATES 128 int
0 1 2 3 4 5 6 7 8 9 10 11 12 13 14 15 16 17 18 19 20 21 22 23 24 25 26 27 28 29 30 31 32 33 34 35 36 37 38 39 40 41 42 43 44 45 46 47 48 49 50 51 52 53 54 55 56 57 58 59 60 61 62 63 64 65 66 67 68 69 70 71 72 73 74 75 76 77 78 79 80 81 82 83 84 85 86 87 88 89 90 91 92 93 94 95 96 97 98 99 100 101 102 103 104 105 106 107 108 109 110 111 112 113 114 115 116 117 118 119 120 121 122 123 124 125 126 127 
Z_COORDINATES 1 int
0
POINT_DATA 16384 
SCALARS density double 1
LOOKUP_TABLE default
1.000000e+000 
1.000000e+000 
1.000000e+000 
1.000000e+000 
1.000000e+000 
1.000000e+000 
1.000000e+000 
1.000000e+000 
1.000000e+000 
1.000000e+000 
1.000000e+000 
1.000000e+000 
1.000000e+000 
1.000000e+000 
1.000000e+000 
1.000000e+000 
1.000000e+000 
1.000000e+000 
1.000000e+000 
1.000000e+000 
1.000000e+000 
1.000000e+000 
1.000000e+000 
1.000000e+000 
1.000000e+000 
1.000000e+000 
1.000000e+000 
1.000000e+000 
1.000000e+000 
1.000000e+000 
1.000000e+000 
1.000000e+000 
1.000000e+000 
1.000000e+000 
1.000000e+000 
1.000000e+000 
1.000000e+000 
1.000000e+000 
1.000000e+000 
1.000000e+000 
1.000000e+000 
1.000000e+000 
1.000000e+000 
1.000000e+000 
1.000000e+000 
1.000000e+000 
1.000000e+000 
1.000000e+000 
1.000000e+000 
1.000000e+000 
1.000000e+000 
1.000000e+000 
1.000000e+000 
1.000000e+000 
1.000000e+000 
1.000000e+000 
1.000000e+000 
1.000000e+000 
1.000000e+000 
1.000000e+000 
1.000000e+000 
1.000000e+000 
1.000000e+000 
1.000000e+000 
1.000000e+000 
1.000000e+000 
1.000000e+000 
1.000000e+000 
1.000000e+000 
1.000000e+000 
1.000000e+000 
1.000000e+000 
1.000000e+000 
1.000000e+000 
1.000000e+000 
1.000000e+000 
1.000000e+000 
1.000000e+000 
1.000000e+000 
1.000000e+000 
1.000000e+000 
1.000000e+000 
1.000000e+000 
1.000000e+000 
1.000000e+000 
1.000000e+000 
1.000000e+000 
1.000000e+000 
1.000000e+000 
1.000000e+000 
1.000000e+000 
1.000000e+000 
1.000000e+000 
1.000000e+000 
1.000000e+000 
1.000000e+000 
1.000000e+000 
1.000000e+000 
1.000000e+000 
1.000000e+000 
1.000000e+000 
1.000000e+000 
1.000000e+000 
1.000000e+000 
1.000000e+000 
1.000000e+000 
1.000000e+000 
1.000000e+000 
1.000000e+000 
1.000000e+000 
1.000000e+000 
1.000000e+000 
1.000000e+000 
1.000000e+000 
1.000000e+000 
1.000000e+000 
1.000000e+000 
1.000000e+000 
1.000000e+000 
1.000000e+000 
1.000000e+000 
1.000000e+000 
1.000000e+000 
1.000000e+000 
1.000000e+000 
1.000000e+000 
1.000000e+000 
1.000000e+000 
1.000000e+000 
3.126836e-004 
3.126176e-004 
3.127074e-004 
3.130086e-004 
3.135253e-004 
3.142194e-004 
3.150541e-004 
3.159977e-004 
3.170216e-004 
3.181001e-004 
3.192105e-004 
3.203333e-004 
3.214512e-004 
3.225497e-004 
3.236160e-004 
3.246393e-004 
3.256104e-004 
3.265213e-004 
3.273654e-004 
3.281372e-004 
3.288319e-004 
3.294457e-004 
3.299755e-004 
3.304187e-004 
3.307732e-004 
3.310374e-004 
3.312101e-004 
3.312902e-004 
3.312772e-004 
3.311706e-004 
3.309701e-004 
3.306756e-004 
3.302870e-004 
3.298045e-004 
3.292284e-004 
3.285589e-004 
3.277964e-004 
3.269414e-004 
3.259945e-004 
3.249562e-004 
3.238273e-004 
3.226086e-004 
3.213011e-004 
3.199058e-004 
3.184238e-004 
3.168566e-004 
3.152055e-004 
3.134724e-004 
3.116590e-004 
3.097674e-004 
3.078000e-004 
3.057593e-004 
3.036480e-004 
3.014692e-004 
2.992263e-004 
2.969228e-004 
2.945627e-004 
2.921503e-004 
2.896899e-004 
2.871864e-004 
2.846451e-004 
2.820712e-004 
2.794705e-004 
2.768491e-004 
2.742132e-004 
2.715695e-004 
2.689246e-004 
2.662856e-004 
2.636598e-004 
2.610545e-004 
2.584773e-004 
2.559358e-004 
2.534377e-004 
2.509909e-004 
2.486031e-004 
2.462819e-004 
2.440351e-004 
2.418701e-004 
2.397942e-004 
2.378146e-004 
2.359379e-004 
2.341707e-004 
2.325190e-004 
2.309887e-004 
2.295847e-004 
2.283120e-004 
2.271745e-004 
2.261758e-004 
2.253188e-004 
2.246058e-004 
2.240382e-004 
2.236169e-004 
2.233418e-004 
2.232123e-004 
2.232268e-004 
2.233829e-004 
2.236774e-004 
2.241065e-004 
2.246652e-004 
2.253480e-004 
2.261483e-004 
2.270591e-004 
2.280722e-004 
2.291787e-004 
2.303693e-004 
2.316334e-004 
2.329600e-004 
2.343373e-004 
2.357528e-004 
2.371932e-004 
2.386446e-004 
2.400924e-004 
2.415212e-004 
2.429149e-004 
2.442567e-004 
2.455292e-004 
2.467143e-004 
2.477931e-004 
2.487466e-004 
2.495553e-004 
2.502014e-004 
2.506677e-004 
2.509397e-004 
2.510133e-004 
2.509459e-004 
2.508216e-004 
1.000000e+000 
1.000000e+000 
3.127485e-004 
3.126827e-004 
3.127824e-004 
3.130704e-004 
3.135290e-004 
3.141413e-004 
3.148818e-004 
3.157241e-004 
3.166430e-004 
3.176157e-004 
3.186220e-004 
3.196437e-004 
3.206647e-004 
3.216711e-004 
3.226506e-004 
3.235928e-004 
3.244884e-004 
3.253298e-004 
3.261101e-004 
3.268238e-004 
3.274661e-004 
3.280329e-004 
3.285209e-004 
3.289274e-004 
3.292501e-004 
3.294873e-004 
3.296374e-004 
3.296994e-004 
3.296725e-004 
3.295559e-004 
3.293494e-004 
3.290527e-004 
3.286655e-004 
3.281881e-004 
3.276205e-004 
3.269629e-004 
3.262157e-004 
3.253793e-004 
3.244541e-004 
3.234409e-004 
3.223403e-004 
3.211530e-004 
3.198801e-004 
3.185225e-004 
3.170815e-004 
3.155583e-004 
3.139545e-004 
3.122717e-004 
3.105118e-004 
3.086768e-004 
3.067690e-004 
3.047909e-004 
3.027453e-004 
3.006351e-004 
2.984636e-004 
2.962343e-004 
2.939511e-004 
2.916181e-004 
2.892397e-004 
2.868204e-004 
2.843654e-004 
2.818798e-004 
2.793692e-004 
2.768394e-004 
2.742964e-004 
2.717465e-004 
2.691964e-004 
2.666526e-004 
2.641222e-004 
2.616123e-004 
2.591299e-004 
2.566825e-004 
2.542774e-004 
2.519221e-004 
2.496238e-004 
2.473900e-004 
2.452278e-004 
2.431445e-004 
2.411470e-004 
2.392418e-004 
2.374356e-004 
2.357343e-004 
2.341438e-004 
2.326694e-004 
2.313159e-004 
2.300878e-004 
2.289889e-004 
2.280225e-004 
2.271912e-004 
2.264972e-004 
2.259416e-004 
2.255253e-004 
2.252480e-004 
2.251090e-004 
2.251068e-004 
2.252389e-004 
2.255022e-004 
2.258929e-004 
2.264061e-004 
2.270366e-004 
2.277780e-004 
2.286233e-004 
2.295648e-004 
2.305940e-004 
2.317017e-004 
2.328779e-004 
2.341120e-004 
2.353928e-004 
2.367082e-004 
2.380458e-004 
2.393921e-004 
2.407335e-004 
2.420555e-004 
2.433430e-004 
2.445804e-004 
2.457517e-004 
2.468404e-004 
2.478297e-004 
2.487031e-004 
2.494442e-004 
2.500380e-004 
2.504723e-004 
2.507417e-004 
2.508518e-004 
2.508239e-004 
2.507007e-004 
1.000000e+000 
1.000000e+000 
3.126578e-004 
3.125823e-004 
3.126822e-004 
3.129565e-004 
3.133790e-004 
3.139376e-004 
3.146104e-004 
3.153754e-004 
3.162114e-004 
3.170986e-004 
3.180187e-004 
3.189550e-004 
3.198929e-004 
3.208193e-004 
3.217226e-004 
3.225926e-004 
3.234207e-004 
3.241991e-004 
3.249214e-004 
3.255818e-004 
3.261756e-004 
3.266988e-004 
3.271478e-004 
3.275199e-004 
3.278127e-004 
3.280243e-004 
3.281530e-004 
3.281978e-004 
3.281575e-004 
3.280315e-004 
3.278193e-004 
3.275204e-004 
3.271348e-004 
3.266623e-004 
3.261029e-004 
3.254570e-004 
3.247246e-004 
3.239063e-004 
3.230024e-004 
3.220135e-004 
3.209403e-004 
3.197836e-004 
3.185442e-004 
3.172232e-004 
3.158218e-004 
3.143412e-004 
3.127829e-004 
3.111486e-004 
3.094401e-004 
3.076594e-004 
3.058087e-004 
3.038905e-004 
3.019075e-004 
2.998627e-004 
2.977591e-004 
2.956002e-004 
2.933899e-004 
2.911320e-004 
2.888307e-004 
2.864908e-004 
2.841168e-004 
2.817140e-004 
2.792877e-004 
2.768434e-004 
2.743871e-004 
2.719247e-004 
2.694626e-004 
2.670072e-004 
2.645652e-004 
2.621434e-004 
2.597487e-004 
2.573881e-004 
2.550686e-004 
2.527973e-004 
2.505813e-004 
2.484277e-004 
2.463432e-004 
2.443347e-004 
2.424088e-004 
2.405719e-004 
2.388300e-004 
2.371890e-004 
2.356543e-004 
2.342309e-004 
2.329236e-004 
2.317363e-004 
2.306727e-004 
2.297359e-004 
2.289284e-004 
2.282520e-004 
2.277078e-004 
2.272965e-004 
2.270178e-004 
2.268709e-004 
2.268543e-004 
2.269654e-004 
2.272014e-004 
2.275583e-004 
2.280315e-004 
2.286158e-004 
2.293051e-004 
2.300927e-004 
2.309710e-004 
2.319319e-004 
2.329665e-004 
2.340652e-004 
2.352181e-004 
2.364141e-004 
2.376420e-004 
2.388897e-004 
2.401447e-004 
2.413941e-004 
2.426241e-004 
2.438207e-004 
2.449696e-004 
2.460559e-004 
2.470647e-004 
2.479811e-004 
2.487902e-004 
2.494784e-004 
2.500331e-004 
2.504442e-004 
2.507066e-004 
2.508255e-004 
2.507973e-004 
2.506353e-004 
1.000000e+000 
1.000000e+000 
3.123554e-004 
3.122928e-004 
3.124074e-004 
3.126826e-004 
3.130917e-004 
3.136194e-004 
3.142469e-004 
3.149565e-004 
3.157301e-004 
3.165502e-004 
3.174006e-004 
3.182665e-004 
3.191345e-004 
3.199924e-004 
3.208295e-004 
3.216363e-004 
3.224044e-004 
3.231266e-004 
3.237964e-004 
3.244084e-004 
3.249579e-004 
3.254408e-004 
3.258538e-004 
3.261939e-004 
3.264587e-004 
3.266463e-004 
3.267549e-004 
3.267834e-004 
3.267306e-004 
3.265957e-004 
3.263781e-004 
3.260774e-004 
3.256933e-004 
3.252256e-004 
3.246745e-004 
3.240398e-004 
3.233220e-004 
3.225212e-004 
3.216380e-004 
3.206728e-004 
3.196263e-004 
3.184992e-004 
3.172924e-004 
3.160069e-004 
3.146437e-004 
3.132042e-004 
3.116899e-004 
3.101022e-004 
3.084431e-004 
3.067144e-004 
3.049184e-004 
3.030574e-004 
3.011341e-004 
2.991514e-004 
2.971122e-004 
2.950201e-004 
2.928785e-004 
2.906914e-004 
2.884629e-004 
2.861974e-004 
2.838995e-004 
2.815742e-004 
2.792265e-004 
2.768620e-004 
2.744862e-004 
2.721050e-004 
2.697244e-004 
2.673508e-004 
2.649904e-004 
2.626498e-004 
2.603357e-004 
2.580548e-004 
2.558139e-004 
2.536197e-004 
2.514790e-004 
2.493986e-004 
2.473850e-004 
2.454447e-004 
2.435841e-004 
2.418092e-004 
2.401259e-004 
2.385397e-004 
2.370557e-004 
2.356789e-004 
2.344134e-004 
2.332633e-004 
2.322320e-004 
2.313223e-004 
2.305365e-004 
2.298764e-004 
2.293430e-004 
2.289368e-004 
2.286575e-004 
2.285043e-004 
2.284754e-004 
2.285686e-004 
2.287809e-004 
2.291084e-004 
2.295468e-004 
2.300909e-004 
2.307348e-004 
2.314719e-004 
2.322951e-004 
2.331964e-004 
2.341674e-004 
2.351988e-004 
2.362810e-004 
2.374036e-004 
2.385558e-004 
2.397262e-004 
2.409030e-004 
2.420738e-004 
2.432259e-004 
2.443462e-004 
2.454214e-004 
2.464379e-004 
2.473821e-004 
2.482406e-004 
2.490002e-004 
2.496487e-004 
2.501751e-004 
2.505711e-004 
2.508292e-004 
2.509467e-004 
2.509076e-004 
2.507075e-004 
1.000000e+000 
1.000000e+000 
3.118355e-004 
3.118312e-004 
3.119833e-004 
3.122748e-004 
3.126858e-004 
3.132002e-004 
3.138016e-004 
3.144745e-004 
3.152031e-004 
3.159724e-004 
3.167682e-004 
3.175772e-004 
3.183874e-004 
3.191877e-004 
3.199683e-004 
3.207203e-004 
3.214359e-004 
3.221083e-004 
3.227313e-004 
3.232998e-004 
3.238091e-004 
3.242554e-004 
3.246353e-004 
3.249459e-004 
3.251849e-004 
3.253503e-004 
3.254403e-004 
3.254536e-004 
3.253892e-004 
3.252461e-004 
3.250237e-004 
3.247215e-004 
3.243391e-004 
3.238764e-004 
3.233333e-004 
3.227099e-004 
3.220063e-004 
3.212227e-004 
3.203597e-004 
3.194175e-004 
3.183970e-004 
3.172986e-004 
3.161233e-004 
3.148721e-004 
3.135460e-004 
3.121461e-004 
3.106741e-004 
3.091313e-004 
3.075195e-004 
3.058407e-004 
3.040969e-004 
3.022905e-004 
3.004240e-004 
2.985003e-004 
2.965223e-004 
2.944932e-004 
2.924166e-004 
2.902962e-004 
2.881360e-004 
2.859403e-004 
2.837135e-004 
2.814605e-004 
2.791861e-004 
2.768957e-004 
2.745947e-004 
2.722887e-004 
2.699835e-004 
2.676853e-004 
2.654001e-004 
2.631342e-004 
2.608941e-004 
2.586862e-004 
2.565171e-004 
2.543933e-004 
2.523213e-004 
2.503075e-004 
2.483584e-004 
2.464802e-004 
2.446788e-004 
2.429602e-004 
2.413300e-004 
2.397934e-004 
2.383555e-004 
2.370207e-004 
2.357932e-004 
2.346769e-004 
2.336749e-004 
2.327899e-004 
2.320242e-004 
2.313792e-004 
2.308560e-004 
2.304550e-004 
2.301759e-004 
2.300176e-004 
2.299787e-004 
2.300567e-004 
2.302488e-004 
2.305513e-004 
2.309597e-004 
2.314692e-004 
2.320739e-004 
2.327676e-004 
2.335433e-004 
2.343933e-004 
2.353094e-004 
2.362830e-004 
2.373046e-004 
2.383644e-004 
2.394521e-004 
2.405569e-004 
2.416675e-004 
2.427723e-004 
2.438595e-004 
2.449168e-004 
2.459319e-004 
2.468922e-004 
2.477853e-004 
2.485991e-004 
2.493216e-004 
2.499419e-004 
2.504496e-004 
2.508362e-004 
2.510924e-004 
2.512108e-004 
2.511755e-004 
2.509749e-004 
1.000000e+000 
1.000000e+000 
3.111343e-004 
3.112127e-004 
3.114211e-004 
3.117473e-004 
3.121763e-004 
3.126937e-004 
3.132852e-004 
3.139372e-004 
3.146361e-004 
3.153691e-004 
3.161237e-004 
3.168882e-004 
3.176518e-004 
3.184047e-004 
3.191378e-004 
3.198432e-004 
3.205135e-004 
3.211423e-004 
3.217241e-004 
3.222538e-004 
3.227272e-004 
3.231404e-004 
3.234904e-004 
3.237742e-004 
3.239896e-004 
3.241346e-004 
3.242076e-004 
3.242071e-004 
3.241320e-004 
3.239816e-004 
3.237549e-004 
3.234517e-004 
3.230713e-004 
3.226137e-004 
3.220787e-004 
3.214664e-004 
3.207768e-004 
3.200101e-004 
3.191667e-004 
3.182471e-004 
3.172518e-004 
3.161814e-004 
3.150367e-004 
3.138186e-004 
3.125282e-004 
3.111666e-004 
3.097353e-004 
3.082356e-004 
3.066692e-004 
3.050381e-004 
3.033442e-004 
3.015898e-004 
2.997774e-004 
2.979096e-004 
2.959894e-004 
2.940199e-004 
2.920045e-004 
2.899468e-004 
2.878507e-004 
2.857203e-004 
2.835599e-004 
2.813743e-004 
2.791681e-004 
2.769464e-004 
2.747145e-004 
2.724779e-004 
2.702423e-004 
2.680133e-004 
2.657971e-004 
2.635996e-004 
2.614272e-004 
2.592859e-004 
2.571822e-004 
2.551224e-004 
2.531127e-004 
2.511595e-004 
2.492687e-004 
2.474465e-004 
2.456987e-004 
2.440309e-004 
2.424486e-004 
2.409567e-004 
2.395602e-004 
2.382633e-004 
2.370702e-004 
2.359843e-004 
2.350088e-004 
2.341463e-004 
2.333989e-004 
2.327679e-004 
2.322544e-004 
2.318586e-004 
2.315803e-004 
2.314184e-004 
2.313714e-004 
2.314370e-004 
2.316122e-004 
2.318935e-004 
2.322767e-004 
2.327568e-004 
2.333283e-004 
2.339851e-004 
2.347204e-004 
2.355269e-004 
2.363966e-004 
2.373213e-004 
2.382918e-004 
2.392988e-004 
2.403325e-004 
2.413826e-004 
2.424384e-004 
2.434890e-004 
2.445233e-004 
2.455299e-004 
2.464972e-004 
2.474138e-004 
2.482682e-004 
2.490492e-004 
2.497461e-004 
2.503485e-004 
2.508467e-004 
2.512317e-004 
2.514938e-004 
2.516231e-004 
2.516063e-004 
2.514327e-004 
1.000000e+000 
1.000000e+000 
3.102867e-004 
3.104616e-004 
3.107415e-004 
3.111179e-004 
3.115790e-004 
3.121131e-004 
3.127084e-004 
3.133532e-004 
3.140359e-004 
3.147453e-004 
3.154706e-004 
3.162017e-004 
3.169290e-004 
3.176438e-004 
3.183379e-004 
3.190042e-004 
3.196360e-004 
3.202274e-004 
3.207733e-004 
3.212690e-004 
3.217105e-004 
3.220943e-004 
3.224174e-004 
3.226772e-004 
3.228713e-004 
3.229979e-004 
3.230554e-004 
3.230425e-004 
3.229580e-004 
3.228011e-004 
3.225710e-004 
3.222672e-004 
3.218893e-004 
3.214371e-004 
3.209103e-004 
3.203090e-004 
3.196332e-004 
3.188831e-004 
3.180591e-004 
3.171614e-004 
3.161907e-004 
3.151474e-004 
3.140324e-004 
3.128464e-004 
3.115905e-004 
3.102659e-004 
3.088736e-004 
3.074153e-004 
3.058925e-004 
3.043069e-004 
3.026606e-004 
3.009557e-004 
2.991946e-004 
2.973798e-004 
2.955143e-004 
2.936009e-004 
2.916431e-004 
2.896442e-004 
2.876081e-004 
2.855387e-004 
2.834403e-004 
2.813172e-004 
2.791742e-004 
2.770161e-004 
2.748480e-004 
2.726753e-004 
2.705035e-004 
2.683380e-004 
2.661848e-004 
2.640498e-004 
2.619389e-004 
2.598582e-004 
2.578138e-004 
2.558119e-004 
2.538585e-004 
2.519597e-004 
2.501215e-004 
2.483497e-004 
2.466500e-004 
2.450278e-004 
2.434883e-004 
2.420365e-004 
2.406770e-004 
2.394141e-004 
2.382517e-004 
2.371932e-004 
2.362415e-004 
2.353993e-004 
2.346684e-004 
2.340503e-004 
2.335459e-004 
2.331554e-004 
2.328785e-004 
2.327142e-004 
2.326610e-004 
2.327165e-004 
2.328779e-004 
2.331418e-004 
2.335040e-004 
2.339597e-004 
2.345035e-004 
2.351296e-004 
2.358313e-004 
2.366016e-004 
2.374328e-004 
2.383169e-004 
2.392452e-004 
2.402088e-004 
2.411983e-004 
2.422038e-004 
2.432155e-004 
2.442228e-004 
2.452153e-004 
2.461825e-004 
2.471135e-004 
2.479977e-004 
2.488246e-004 
2.495838e-004 
2.502654e-004 
2.508596e-004 
2.513573e-004 
2.517493e-004 
2.520264e-004 
2.521788e-004 
2.521949e-004 
2.520662e-004 
1.000000e+000 
1.000000e+000 
3.093225e-004 
3.096028e-004 
3.099652e-004 
3.104034e-004 
3.109085e-004 
3.114714e-004 
3.120824e-004 
3.127318e-004 
3.134097e-004 
3.141066e-004 
3.148133e-004 
3.155209e-004 
3.162212e-004 
3.169064e-004 
3.175694e-004 
3.182037e-004 
3.188033e-004 
3.193631e-004 
3.198782e-004 
3.203445e-004 
3.207583e-004 
3.211163e-004 
3.214157e-004 
3.216540e-004 
3.218293e-004 
3.219395e-004 
3.219834e-004 
3.219595e-004 
3.218668e-004 
3.217044e-004 
3.214717e-004 
3.211680e-004 
3.207930e-004 
3.203464e-004 
3.198281e-004 
3.192378e-004 
3.185758e-004 
3.178421e-004 
3.170370e-004 
3.161609e-004 
3.152141e-004 
3.141972e-004 
3.131110e-004 
3.119561e-004 
3.107336e-004 
3.094444e-004 
3.080899e-004 
3.066712e-004 
3.051900e-004 
3.036480e-004 
3.020471e-004 
3.003892e-004 
2.986768e-004 
2.969122e-004 
2.950982e-004 
2.932378e-004 
2.913340e-004 
2.893902e-004 
2.874101e-004 
2.853976e-004 
2.833566e-004 
2.812915e-004 
2.792069e-004 
2.771074e-004 
2.749981e-004 
2.728839e-004 
2.707704e-004 
2.686629e-004 
2.665671e-004 
2.644887e-004 
2.624335e-004 
2.604075e-004 
2.584166e-004 
2.564667e-004 
2.545638e-004 
2.527139e-004 
2.509226e-004 
2.491958e-004 
2.475388e-004 
2.459571e-004 
2.444558e-004 
2.430395e-004 
2.417129e-004 
2.404802e-004 
2.393450e-004 
2.383107e-004 
2.373804e-004 
2.365562e-004 
2.358403e-004 
2.352340e-004 
2.347380e-004 
2.343528e-004 
2.340778e-004 
2.339121e-004 
2.338542e-004 
2.339020e-004 
2.340525e-004 
2.343024e-004 
2.346476e-004 
2.350835e-004 
2.356049e-004 
2.362059e-004 
2.368803e-004 
2.376212e-004 
2.384213e-004 
2.392727e-004 
2.401671e-004 
2.410960e-004 
2.420504e-004 
2.430210e-004 
2.439983e-004 
2.449724e-004 
2.459335e-004 
2.468717e-004 
2.477769e-004 
2.486392e-004 
2.494489e-004 
2.501963e-004 
2.508722e-004 
2.514675e-004 
2.519735e-004 
2.523816e-004 
2.526830e-004 
2.528694e-004 
2.529305e-004 
2.528594e-004 
1.000000e+000 
1.000000e+000 
3.082684e-004 
3.086601e-004 
3.091127e-004 
3.096214e-004 
3.101800e-004 
3.107816e-004 
3.114184e-004 
3.120824e-004 
3.127654e-004 
3.134595e-004 
3.141569e-004 
3.148499e-004 
3.155315e-004 
3.161949e-004 
3.168339e-004 
3.174428e-004 
3.180163e-004 
3.185499e-004 
3.190392e-004 
3.194804e-004 
3.198704e-004 
3.202060e-004 
3.204848e-004 
3.207045e-004 
3.208632e-004 
3.209592e-004 
3.209912e-004 
3.209579e-004 
3.208583e-004 
3.206916e-004 
3.204571e-004 
3.201543e-004 
3.197827e-004 
3.193422e-004 
3.188325e-004 
3.182535e-004 
3.176052e-004 
3.168877e-004 
3.161013e-004 
3.152462e-004 
3.143229e-004 
3.133317e-004 
3.122734e-004 
3.111487e-004 
3.099584e-004 
3.087035e-004 
3.073851e-004 
3.060045e-004 
3.045632e-004 
3.030628e-004 
3.015050e-004 
2.998918e-004 
2.982255e-004 
2.965083e-004 
2.947430e-004 
2.929322e-004 
2.910791e-004 
2.891868e-004 
2.872590e-004 
2.852992e-004 
2.833115e-004 
2.813000e-004 
2.792692e-004 
2.772235e-004 
2.751679e-004 
2.731072e-004 
2.710468e-004 
2.689919e-004 
2.669480e-004 
2.649207e-004 
2.629157e-004 
2.609387e-004 
2.589956e-004 
2.570922e-004 
2.552343e-004 
2.534277e-004 
2.516780e-004 
2.499909e-004 
2.483717e-004 
2.468257e-004 
2.453578e-004 
2.439728e-004 
2.426750e-004 
2.414687e-004 
2.403574e-004 
2.393444e-004 
2.384327e-004 
2.376246e-004 
2.369220e-004 
2.363262e-004 
2.358380e-004 
2.354578e-004 
2.351851e-004 
2.350190e-004 
2.349580e-004 
2.349999e-004 
2.351421e-004 
2.353811e-004 
2.357131e-004 
2.361334e-004 
2.366371e-004 
2.372185e-004 
2.378715e-004 
2.385894e-004 
2.393651e-004 
2.401911e-004 
2.410594e-004 
2.419618e-004 
2.428897e-004 
2.438342e-004 
2.447862e-004 
2.457365e-004 
2.466758e-004 
2.475946e-004 
2.484837e-004 
2.493337e-004 
2.501356e-004 
2.508804e-004 
2.515596e-004 
2.521646e-004 
2.526874e-004 
2.531202e-004 
2.534549e-004 
2.536841e-004 
2.537999e-004 
2.537963e-004 
1.000000e+000 
1.000000e+000 
3.071490e-004 
3.076555e-004 
3.082031e-004 
3.087889e-004 
3.094085e-004 
3.100567e-004 
3.107276e-004 
3.114147e-004 
3.121114e-004 
3.128111e-004 
3.135072e-004 
3.141934e-004 
3.148637e-004 
3.155123e-004 
3.161338e-004 
3.167233e-004 
3.172764e-004 
3.177888e-004 
3.182569e-004 
3.186773e-004 
3.190472e-004 
3.193639e-004 
3.196252e-004 
3.198289e-004 
3.199735e-004 
3.200574e-004 
3.200793e-004 
3.200381e-004 
3.199329e-004 
3.197631e-004 
3.195278e-004 
3.192266e-004 
3.188592e-004 
3.184252e-004 
3.179244e-004 
3.173568e-004 
3.167223e-004 
3.160210e-004 
3.152530e-004 
3.144187e-004 
3.135182e-004 
3.125522e-004 
3.115211e-004 
3.104255e-004 
3.092664e-004 
3.080445e-004 
3.067609e-004 
3.054169e-004 
3.040137e-004 
3.025530e-004 
3.010363e-004 
2.994655e-004 
2.978428e-004 
2.961704e-004 
2.944507e-004 
2.926866e-004 
2.908808e-004 
2.890366e-004 
2.871573e-004 
2.852464e-004 
2.833079e-004 
2.813458e-004 
2.793643e-004 
2.773678e-004 
2.753612e-004 
2.733491e-004 
2.713368e-004 
2.693293e-004 
2.673320e-004 
2.653505e-004 
2.633902e-004 
2.614569e-004 
2.595562e-004 
2.576939e-004 
2.558756e-004 
2.541071e-004 
2.523939e-004 
2.507414e-004 
2.491551e-004 
2.476400e-004 
2.462012e-004 
2.448431e-004 
2.435703e-004 
2.423867e-004 
2.412960e-004 
2.403014e-004 
2.394058e-004 
2.386116e-004 
2.379205e-004 
2.373340e-004 
2.368529e-004 
2.364774e-004 
2.362071e-004 
2.360414e-004 
2.359785e-004 
2.360164e-004 
2.361525e-004 
2.363836e-004 
2.367057e-004 
2.371144e-004 
2.376049e-004 
2.381716e-004 
2.388085e-004 
2.395093e-004 
2.402671e-004 
2.410745e-004 
2.419239e-004 
2.428074e-004 
2.437166e-004 
2.446432e-004 
2.455785e-004 
2.465136e-004 
2.474399e-004 
2.483483e-004 
2.492302e-004 
2.500768e-004 
2.508796e-004 
2.516304e-004 
2.523211e-004 
2.529440e-004 
2.534916e-004 
2.539567e-004 
2.543324e-004 
2.546123e-004 
2.547900e-004 
2.548609e-004 
1.000000e+000 
1.000000e+000 
3.059860e-004 
3.066086e-004 
3.072546e-004 
3.079220e-004 
3.086083e-004 
3.093095e-004 
3.100212e-004 
3.107385e-004 
3.114560e-004 
3.121685e-004 
3.128704e-004 
3.135567e-004 
3.142223e-004 
3.148623e-004 
3.154722e-004 
3.160480e-004 
3.165856e-004 
3.170816e-004 
3.175329e-004 
3.179365e-004 
3.182900e-004 
3.185910e-004 
3.188376e-004 
3.190281e-004 
3.191608e-004 
3.192347e-004 
3.192484e-004 
3.192010e-004 
3.190917e-004 
3.189198e-004 
3.186848e-004 
3.183862e-004 
3.180235e-004 
3.175966e-004 
3.171052e-004 
3.165492e-004 
3.159286e-004 
3.152434e-004 
3.144937e-004 
3.136797e-004 
3.128018e-004 
3.118603e-004 
3.108556e-004 
3.097884e-004 
3.086594e-004 
3.074694e-004 
3.062193e-004 
3.049103e-004 
3.035436e-004 
3.021207e-004 
3.006431e-004 
2.991125e-004 
2.975310e-004 
2.959008e-004 
2.942241e-004 
2.925036e-004 
2.907421e-004 
2.889425e-004 
2.871082e-004 
2.852425e-004 
2.833493e-004 
2.814324e-004 
2.794959e-004 
2.775443e-004 
2.755820e-004 
2.736138e-004 
2.716446e-004 
2.696796e-004 
2.677240e-004 
2.657831e-004 
2.638625e-004 
2.619676e-004 
2.601041e-004 
2.582776e-004 
2.564938e-004 
2.547582e-004 
2.530764e-004 
2.514537e-004 
2.498955e-004 
2.484069e-004 
2.469927e-004 
2.456575e-004 
2.444057e-004 
2.432412e-004 
2.421678e-004 
2.411887e-004 
2.403067e-004 
2.395241e-004 
2.388429e-004 
2.382644e-004 
2.377894e-004 
2.374182e-004 
2.371505e-004 
2.369855e-004 
2.369218e-004 
2.369573e-004 
2.370895e-004 
2.373150e-004 
2.376303e-004 
2.380310e-004 
2.385123e-004 
2.390688e-004 
2.396948e-004 
2.403840e-004 
2.411297e-004 
2.419248e-004 
2.427620e-004 
2.436336e-004 
2.445316e-004 
2.454479e-004 
2.463743e-004 
2.473023e-004 
2.482237e-004 
2.491300e-004 
2.500129e-004 
2.508642e-004 
2.516761e-004 
2.524407e-004 
2.531507e-004 
2.537988e-004 
2.543783e-004 
2.548827e-004 
2.553061e-004 
2.556428e-004 
2.558881e-004 
2.560382e-004 
1.000000e+000 
1.000000e+000 
3.047987e-004 
3.055376e-004 
3.062838e-004 
3.070361e-004 
3.077931e-004 
3.085523e-004 
3.093103e-004 
3.100636e-004 
3.108079e-004 
3.115392e-004 
3.122531e-004 
3.129455e-004 
3.136121e-004 
3.142491e-004 
3.148528e-004 
3.154197e-004 
3.159466e-004 
3.164306e-004 
3.168691e-004 
3.172596e-004 
3.176001e-004 
3.178886e-004 
3.181234e-004 
3.183032e-004 
3.184265e-004 
3.184923e-004 
3.184997e-004 
3.184477e-004 
3.183358e-004 
3.181632e-004 
3.179295e-004 
3.176342e-004 
3.172771e-004 
3.168579e-004 
3.163763e-004 
3.158323e-004 
3.152257e-004 
3.145566e-004 
3.138251e-004 
3.130314e-004 
3.121756e-004 
3.112580e-004 
3.102792e-004 
3.092395e-004 
3.081397e-004 
3.069805e-004 
3.057626e-004 
3.044872e-004 
3.031554e-004 
3.017686e-004 
3.003281e-004 
2.988356e-004 
2.972931e-004 
2.957025e-004 
2.940661e-004 
2.923864e-004 
2.906660e-004 
2.889079e-004 
2.871152e-004 
2.852911e-004 
2.834394e-004 
2.815637e-004 
2.796682e-004 
2.777571e-004 
2.758347e-004 
2.739059e-004 
2.719753e-004 
2.700479e-004 
2.681290e-004 
2.662239e-004 
2.643378e-004 
2.624763e-004 
2.606449e-004 
2.588492e-004 
2.570949e-004 
2.553873e-004 
2.537320e-004 
2.521344e-004 
2.505997e-004 
2.491330e-004 
2.477391e-004 
2.464227e-004 
2.451881e-004 
2.440393e-004 
2.429800e-004 
2.420134e-004 
2.411423e-004 
2.403692e-004 
2.396960e-004 
2.391239e-004 
2.386541e-004 
2.382866e-004 
2.380214e-004 
2.378576e-004 
2.377939e-004 
2.378282e-004 
2.379581e-004 
2.381805e-004 
2.384917e-004 
2.388876e-004 
2.393634e-004 
2.399139e-004 
2.405335e-004 
2.412161e-004 
2.419551e-004 
2.427438e-004 
2.435750e-004 
2.444412e-004 
2.453348e-004 
2.462479e-004 
2.471727e-004 
2.481011e-004 
2.490252e-004 
2.499369e-004 
2.508284e-004 
2.516921e-004 
2.525204e-004 
2.533062e-004 
2.540424e-004 
2.547225e-004 
2.553404e-004 
2.558902e-004 
2.563667e-004 
2.567654e-004 
2.570823e-004 
2.573147e-004 
1.000000e+000 
1.000000e+000 
3.036045e-004 
3.044591e-004 
3.053061e-004 
3.061453e-004 
3.069761e-004 
3.077969e-004 
3.086057e-004 
3.093996e-004 
3.101758e-004 
3.109311e-004 
3.116621e-004 
3.123656e-004 
3.130384e-004 
3.136774e-004 
3.142795e-004 
3.148421e-004 
3.153626e-004 
3.158387e-004 
3.162681e-004 
3.166491e-004 
3.169798e-004 
3.172587e-004 
3.174845e-004 
3.176560e-004 
3.177722e-004 
3.178321e-004 
3.178349e-004 
3.177800e-004 
3.176668e-004 
3.174948e-004 
3.172635e-004 
3.169727e-004 
3.166219e-004 
3.162109e-004 
3.157397e-004 
3.152080e-004 
3.146157e-004 
3.139629e-004 
3.132495e-004 
3.124758e-004 
3.116418e-004 
3.107478e-004 
3.097942e-004 
3.087813e-004 
3.077098e-004 
3.065803e-004 
3.053935e-004 
3.041504e-004 
3.028520e-004 
3.014995e-004 
3.000943e-004 
2.986379e-004 
2.971321e-004 
2.955789e-004 
2.939802e-004 
2.923386e-004 
2.906564e-004 
2.889366e-004 
2.871821e-004 
2.853962e-004 
2.835823e-004 
2.817442e-004 
2.798856e-004 
2.780109e-004 
2.761242e-004 
2.742302e-004 
2.723337e-004 
2.704394e-004 
2.685525e-004 
2.666783e-004 
2.648219e-004 
2.629889e-004 
2.611848e-004 
2.594150e-004 
2.576852e-004 
2.560008e-004 
2.543673e-004 
2.527900e-004 
2.512743e-004 
2.498251e-004 
2.484474e-004 
2.471458e-004 
2.459246e-004 
2.447879e-004 
2.437394e-004 
2.427823e-004 
2.419196e-004 
2.411536e-004 
2.404864e-004 
2.399193e-004 
2.394534e-004 
2.390889e-004 
2.388258e-004 
2.386633e-004 
2.386001e-004 
2.386343e-004 
2.387635e-004 
2.389847e-004 
2.392942e-004 
2.396881e-004 
2.401618e-004 
2.407100e-004 
2.413275e-004 
2.420081e-004 
2.427455e-004 
2.435331e-004 
2.443640e-004 
2.452309e-004 
2.461264e-004 
2.470429e-004 
2.479729e-004 
2.489085e-004 
2.498423e-004 
2.507665e-004 
2.516737e-004 
2.525567e-004 
2.534083e-004 
2.542217e-004 
2.549906e-004 
2.557089e-004 
2.563708e-004 
2.569713e-004 
2.575058e-004 
2.579704e-004 
2.583620e-004 
2.586784e-004 
1.000000e+000 
1.000000e+000 
3.024188e-004 
3.033878e-004 
3.043358e-004 
3.052630e-004 
3.061696e-004 
3.070549e-004 
3.079177e-004 
3.087561e-004 
3.095683e-004 
3.103518e-004 
3.111043e-004 
3.118235e-004 
3.125068e-004 
3.131520e-004 
3.137569e-004 
3.143192e-004 
3.148372e-004 
3.153089e-004 
3.157328e-004 
3.161074e-004 
3.164314e-004 
3.167036e-004 
3.169230e-004 
3.170887e-004 
3.171999e-004 
3.172558e-004 
3.172560e-004 
3.171998e-004 
3.170868e-004 
3.169167e-004 
3.166890e-004 
3.164035e-004 
3.160599e-004 
3.156580e-004 
3.151976e-004 
3.146786e-004 
3.141009e-004 
3.134645e-004 
3.127693e-004 
3.120154e-004 
3.112030e-004 
3.103322e-004 
3.094033e-004 
3.084166e-004 
3.073726e-004 
3.062718e-004 
3.051150e-004 
3.039029e-004 
3.026364e-004 
3.013168e-004 
2.999451e-004 
2.985229e-004 
2.970518e-004 
2.955335e-004 
2.939702e-004 
2.923639e-004 
2.907172e-004 
2.890328e-004 
2.873134e-004 
2.855623e-004 
2.837827e-004 
2.819784e-004 
2.801530e-004 
2.783106e-004 
2.764556e-004 
2.745922e-004 
2.727253e-004 
2.708596e-004 
2.690002e-004 
2.671522e-004 
2.653209e-004 
2.635116e-004 
2.617299e-004 
2.599813e-004 
2.582712e-004 
2.566053e-004 
2.549889e-004 
2.534274e-004 
2.519262e-004 
2.504902e-004 
2.491245e-004 
2.478336e-004 
2.466221e-004 
2.454939e-004 
2.444528e-004 
2.435023e-004 
2.426451e-004 
2.418839e-004 
2.412206e-004 
2.406568e-004 
2.401935e-004 
2.398311e-004 
2.395696e-004 
2.394083e-004 
2.393460e-004 
2.393808e-004 
2.395105e-004 
2.397320e-004 
2.400421e-004 
2.404365e-004 
2.409110e-004 
2.414604e-004 
2.420795e-004 
2.427623e-004 
2.435027e-004 
2.442943e-004 
2.451301e-004 
2.460032e-004 
2.469064e-004 
2.478324e-004 
2.487738e-004 
2.497232e-004 
2.506731e-004 
2.516164e-004 
2.525458e-004 
2.534544e-004 
2.543356e-004 
2.551829e-004 
2.559903e-004 
2.567522e-004 
2.574633e-004 
2.581191e-004 
2.587155e-004 
2.592491e-004 
2.597175e-004 
2.601191e-004 
1.000000e+000 
1.000000e+000 
3.012557e-004 
3.023376e-004 
3.033861e-004 
3.044017e-004 
3.053855e-004 
3.063372e-004 
3.072565e-004 
3.081424e-004 
3.089938e-004 
3.098091e-004 