# vtk DataFile Version 2.0
2D-ADE data file 
ASCII
DATASET RECTILINEAR_GRID
DIMENSIONS 128 128 1
X_COORDINATES 128 int
0 1 2 3 4 5 6 7 8 9 10 11 12 13 14 15 16 17 18 19 20 21 22 23 24 25 26 27 28 29 30 31 32 33 34 35 36 37 38 39 40 41 42 43 44 45 46 47 48 49 50 51 52 53 54 55 56 57 58 59 60 61 62 63 64 65 66 67 68 69 70 71 72 73 74 75 76 77 78 79 80 81 82 83 84 85 86 87 88 89 90 91 92 93 94 95 96 97 98 99 100 101 102 103 104 105 106 107 108 109 110 111 112 113 114 115 116 117 118 119 120 121 122 123 124 125 126 127 
Y_COORDINATES 128 int
0 1 2 3 4 5 6 7 8 9 10 11 12 13 14 15 16 17 18 19 20 21 22 23 24 25 26 27 28 29 30 31 32 33 34 35 36 37 38 39 40 41 42 43 44 45 46 47 48 49 50 51 52 53 54 55 56 57 58 59 60 61 62 63 64 65 66 67 68 69 70 71 72 73 74 75 76 77 78 79 80 81 82 83 84 85 86 87 88 89 90 91 92 93 94 95 96 97 98 99 100 101 102 103 104 105 106 107 108 109 110 111 112 113 114 115 116 117 118 119 120 121 122 123 124 125 126 127 
Z_COORDINATES 1 int
0
POINT_DATA 16384 
SCALARS density double 1
LOOKUP_TABLE default
1.000000e+000 
1.000000e+000 
1.000000e+000 
1.000000e+000 
1.000000e+000 
1.000000e+000 
1.000000e+000 
1.000000e+000 
1.000000e+000 
1.000000e+000 
1.000000e+000 
1.000000e+000 
1.000000e+000 
1.000000e+000 
1.000000e+000 
1.000000e+000 
1.000000e+000 
1.000000e+000 
1.000000e+000 
1.000000e+000 
1.000000e+000 
1.000000e+000 
1.000000e+000 
1.000000e+000 
1.000000e+000 
1.000000e+000 
1.000000e+000 
1.000000e+000 
1.000000e+000 
1.000000e+000 
1.000000e+000 
1.000000e+000 
1.000000e+000 
1.000000e+000 
1.000000e+000 
1.000000e+000 
1.000000e+000 
1.000000e+000 
1.000000e+000 
1.000000e+000 
1.000000e+000 
1.000000e+000 
1.000000e+000 
1.000000e+000 
1.000000e+000 
1.000000e+000 
1.000000e+000 
1.000000e+000 
1.000000e+000 
1.000000e+000 
1.000000e+000 
1.000000e+000 
1.000000e+000 
1.000000e+000 
1.000000e+000 
1.000000e+000 
1.000000e+000 
1.000000e+000 
1.000000e+000 
1.000000e+000 
1.000000e+000 
1.000000e+000 
1.000000e+000 
1.000000e+000 
1.000000e+000 
1.000000e+000 
1.000000e+000 
1.000000e+000 
1.000000e+000 
1.000000e+000 
1.000000e+000 
1.000000e+000 
1.000000e+000 
1.000000e+000 
1.000000e+000 
1.000000e+000 
1.000000e+000 
1.000000e+000 
1.000000e+000 
1.000000e+000 
1.000000e+000 
1.000000e+000 
1.000000e+000 
1.000000e+000 
1.000000e+000 
1.000000e+000 
1.000000e+000 
1.000000e+000 
1.000000e+000 
1.000000e+000 
1.000000e+000 
1.000000e+000 
1.000000e+000 
1.000000e+000 
1.000000e+000 
1.000000e+000 
1.000000e+000 
1.000000e+000 
1.000000e+000 
1.000000e+000 
1.000000e+000 
1.000000e+000 
1.000000e+000 
1.000000e+000 
1.000000e+000 
1.000000e+000 
1.000000e+000 
1.000000e+000 
1.000000e+000 
1.000000e+000 
1.000000e+000 
1.000000e+000 
1.000000e+000 
1.000000e+000 
1.000000e+000 
1.000000e+000 
1.000000e+000 
1.000000e+000 
1.000000e+000 
1.000000e+000 
1.000000e+000 
1.000000e+000 
1.000000e+000 
1.000000e+000 
1.000000e+000 
1.000000e+000 
1.000000e+000 
1.000000e+000 
1.000000e+000 
3.071407e-004 
3.070510e-004 
3.071353e-004 
3.074659e-004 
3.080568e-004 
3.088667e-004 
3.098540e-004 
3.109819e-004 
3.122174e-004 
3.135299e-004 
3.148926e-004 
3.162820e-004 
3.176778e-004 
3.190621e-004 
3.204198e-004 
3.217377e-004 
3.230047e-004 
3.242111e-004 
3.253490e-004 
3.264116e-004 
3.273932e-004 
3.282891e-004 
3.290956e-004 
3.298093e-004 
3.304278e-004 
3.309489e-004 
3.313711e-004 
3.316930e-004 
3.319136e-004 
3.320322e-004 
3.320483e-004 
3.319612e-004 
3.317709e-004 
3.314770e-004 
3.310796e-004 
3.305785e-004 
3.299739e-004 
3.292658e-004 
3.284546e-004 
3.275404e-004 
3.265238e-004 
3.254052e-004 
3.241852e-004 
3.228648e-004 
3.214448e-004 
3.199263e-004 
3.183108e-004 
3.165998e-004 
3.147952e-004 
3.128990e-004 
3.109136e-004 
3.088418e-004 
3.066865e-004 
3.044513e-004 
3.021397e-004 
2.997559e-004 
2.973044e-004 
2.947901e-004 
2.922182e-004 
2.895944e-004 
2.869248e-004 
2.842157e-004 
2.814741e-004 
2.787071e-004 
2.759223e-004 
2.731274e-004 
2.703306e-004 
2.675404e-004 
2.647655e-004 
2.620146e-004 
2.592970e-004 
2.566216e-004 
2.539977e-004 
2.514347e-004 
2.489417e-004 
2.465279e-004 
2.442022e-004 
2.419736e-004 
2.398505e-004 
2.378413e-004 
2.359537e-004 
2.341953e-004 
2.325728e-004 
2.310929e-004 
2.297611e-004 
2.285827e-004 
2.275619e-004 
2.267026e-004 
2.260075e-004 
2.254785e-004 
2.251169e-004 
2.249228e-004 
2.248956e-004 
2.250335e-004 
2.253340e-004 
2.257935e-004 
2.264073e-004 
2.271701e-004 
2.280751e-004 
2.291151e-004 
2.302816e-004 
2.315653e-004 
2.329560e-004 
2.344427e-004 
2.360133e-004 
2.376551e-004 
2.393546e-004 
2.410974e-004 
2.428684e-004 
2.446519e-004 
2.464313e-004 
2.481893e-004 
2.499080e-004 
2.515689e-004 
2.531527e-004 
2.546395e-004 
2.560091e-004 
2.572407e-004 
2.583135e-004 
2.592072e-004 
2.599034e-004 
2.603860e-004 
2.606430e-004 
2.606770e-004 
2.605664e-004 
2.604132e-004 
1.000000e+000 
1.000000e+000 
3.072305e-004 
3.071407e-004 
3.072416e-004 
3.075645e-004 
3.080938e-004 
3.088125e-004 
3.096923e-004 
3.107033e-004 
3.118163e-004 
3.130047e-004 
3.142444e-004 
3.155141e-004 
3.167945e-004 
3.180689e-004 
3.193227e-004 
3.205432e-004 
3.217195e-004 
3.228422e-004 
3.239031e-004 
3.248954e-004 
3.258135e-004 
3.266523e-004 
3.274078e-004 
3.280767e-004 
3.286561e-004 
3.291438e-004 
3.295380e-004 
3.298371e-004 
3.300399e-004 
3.301455e-004 
3.301532e-004 
3.300624e-004 
3.298726e-004 
3.295836e-004 
3.291952e-004 
3.287073e-004 
3.281198e-004 
3.274329e-004 
3.266468e-004 
3.257618e-004 
3.247781e-004 
3.236964e-004 
3.225173e-004 
3.212415e-004 
3.198701e-004 
3.184041e-004 
3.168450e-004 
3.151942e-004 
3.134536e-004 
3.116254e-004 
3.097117e-004 
3.077154e-004 
3.056393e-004 
3.034868e-004 
3.012615e-004 
2.989674e-004 
2.966088e-004 
2.941905e-004 
2.917176e-004 
2.891956e-004 
2.866302e-004 
2.840277e-004 
2.813946e-004 
2.787379e-004 
2.760648e-004 
2.733827e-004 
2.706995e-004 
2.680233e-004 
2.653623e-004 
2.627251e-004 
2.601201e-004 
2.575562e-004 
2.550422e-004 
2.525869e-004 
2.501989e-004 
2.478871e-004 
2.456600e-004 
2.435259e-004 
2.414930e-004 
2.395690e-004 
2.377613e-004 
2.360771e-004 
2.345227e-004 
2.331043e-004 
2.318271e-004 
2.306961e-004 
2.297153e-004 
2.288880e-004 
2.282169e-004 
2.277038e-004 
2.273496e-004 
2.271544e-004 
2.271174e-004 
2.272370e-004 
2.275105e-004 
2.279343e-004 
2.285041e-004 
2.292145e-004 
2.300591e-004 
2.310307e-004 
2.321213e-004 
2.333218e-004 
2.346226e-004 
2.360128e-004 
2.374812e-004 
2.390155e-004 
2.406028e-004 
2.422293e-004 
2.438808e-004 
2.455423e-004 
2.471980e-004 
2.488319e-004 
2.504270e-004 
2.519661e-004 
2.534314e-004 
2.548047e-004 
2.560678e-004 
2.572023e-004 
2.581903e-004 
2.590151e-004 
2.596614e-004 
2.601189e-004 
2.603855e-004 
2.604726e-004 
2.604131e-004 
2.602599e-004 
1.000000e+000 
1.000000e+000 
3.071462e-004 
3.070395e-004 
3.071406e-004 
3.074507e-004 
3.079412e-004 
3.085998e-004 
3.094026e-004 
3.103245e-004 
3.113410e-004 
3.124291e-004 
3.135672e-004 
3.147358e-004 
3.159174e-004 
3.170963e-004 
3.182589e-004 
3.193930e-004 
3.204880e-004 
3.215349e-004 
3.225257e-004 
3.234536e-004 
3.243129e-004 
3.250987e-004 
3.258067e-004 
3.264336e-004 
3.269763e-004 
3.274325e-004 
3.278002e-004 
3.280777e-004 
3.282637e-004 
3.283572e-004 
3.283571e-004 
3.282629e-004 
3.280740e-004 
3.277901e-004 
3.274108e-004 
3.269361e-004 
3.263658e-004 
3.256999e-004 
3.249387e-004 
3.240823e-004 
3.231311e-004 
3.220857e-004 
3.209465e-004 
3.197145e-004 
3.183905e-004 
3.169757e-004 
3.154713e-004 
3.138790e-004 
3.122005e-004 
3.104378e-004 
3.085932e-004 
3.066694e-004 
3.046692e-004 
3.025958e-004 
3.004528e-004 
2.982440e-004 
2.959737e-004 
2.936464e-004 
2.912670e-004 
2.888409e-004 
2.863736e-004 
2.838711e-004 
2.813398e-004 
2.787862e-004 
2.762173e-004 
2.736403e-004 
2.710627e-004 
2.684922e-004 
2.659368e-004 
2.634046e-004 
2.609037e-004 
2.584426e-004 
2.560297e-004 
2.536734e-004 
2.513819e-004 
2.491637e-004 
2.470268e-004 
2.449793e-004 
2.430287e-004 
2.411826e-004 
2.394479e-004 
2.378314e-004 
2.363391e-004 
2.349768e-004 
2.337496e-004 
2.326619e-004 
2.317177e-004 
2.309199e-004 
2.302710e-004 
2.297727e-004 
2.294258e-004 
2.292302e-004 
2.291852e-004 
2.292889e-004 
2.295389e-004 
2.299315e-004 
2.304625e-004 
2.311267e-004 
2.319179e-004 
2.328291e-004 
2.338526e-004 
2.349797e-004 
2.362009e-004 
2.375062e-004 
2.388844e-004 
2.403239e-004 
2.418124e-004 
2.433369e-004 
2.448837e-004 
2.464385e-004 
2.479867e-004 
2.495130e-004 
2.510016e-004 
2.524364e-004 
2.538011e-004 
2.550791e-004 
2.562537e-004 
2.573088e-004 
2.582286e-004 
2.589991e-004 
2.596078e-004 
2.600459e-004 
2.603113e-004 
2.604137e-004 
2.603535e-004 
2.601486e-004 
1.000000e+000 
1.000000e+000 
3.068146e-004 
3.067153e-004 
3.068305e-004 
3.071419e-004 
3.076180e-004 
3.082424e-004 
3.089937e-004 
3.098518e-004 
3.107957e-004 
3.118052e-004 
3.128613e-004 
3.139465e-004 
3.150450e-004 
3.161423e-004 
3.172258e-004 
3.182840e-004 
3.193070e-004 
3.202861e-004 
3.212136e-004 
3.220829e-004 
3.228885e-004 
3.236254e-004 
3.242895e-004 
3.248773e-004 
3.253859e-004 
3.258126e-004 
3.261556e-004 
3.264129e-004 
3.265832e-004 
3.266653e-004 
3.266582e-004 
3.265612e-004 
3.263737e-004 
3.260952e-004 
3.257252e-004 
3.252637e-004 
3.247105e-004 
3.240655e-004 
3.233290e-004 
3.225009e-004 
3.215818e-004 
3.205720e-004 
3.194721e-004 
3.182828e-004 
3.170051e-004 
3.156401e-004 
3.141890e-004 
3.126533e-004 
3.110348e-004 
3.093353e-004 
3.075573e-004 
3.057030e-004 
3.037755e-004 
3.017777e-004 
2.997131e-004 
2.975854e-004 
2.953988e-004 
2.931575e-004 
2.908664e-004 
2.885306e-004 
2.861554e-004 
2.837466e-004 
2.813104e-004 
2.788530e-004 
2.763811e-004 
2.739017e-004 
2.714220e-004 
2.689493e-004 
2.664914e-004 
2.640560e-004 
2.616509e-004 
2.592842e-004 
2.569640e-004 
2.546983e-004 
2.524951e-004 
2.503623e-004 
2.483077e-004 
2.463390e-004 
2.444634e-004 
2.426881e-004 
2.410198e-004 
2.394648e-004 
2.380289e-004 
2.367177e-004 
2.355358e-004 
2.344876e-004 
2.335766e-004 
2.328059e-004 
2.321776e-004 
2.316932e-004 
2.313534e-004 
2.311582e-004 
2.311066e-004 
2.311970e-004 
2.314267e-004 
2.317923e-004 
2.322896e-004 
2.329135e-004 
2.336581e-004 
2.345166e-004 
2.354814e-004 
2.365443e-004 
2.376961e-004 
2.389271e-004 
2.402266e-004 
2.415837e-004 
2.429863e-004 
2.444222e-004 
2.458784e-004 
2.473414e-004 
2.487973e-004 
2.502317e-004 
2.516299e-004 
2.529770e-004 
2.542578e-004 
2.554572e-004 
2.565602e-004 
2.575520e-004 
2.584189e-004 
2.591481e-004 
2.597290e-004 
2.601539e-004 
2.604169e-004 
2.605175e-004 
2.604395e-004 
2.601799e-004 
1.000000e+000 
1.000000e+000 
3.062198e-004 
3.061825e-004 
3.063387e-004 
3.066681e-004 
3.071469e-004 
3.077566e-004 
3.084783e-004 
3.092941e-004 
3.101858e-004 
3.111358e-004 
3.121275e-004 
3.131455e-004 
3.141753e-004 
3.152040e-004 
3.162199e-004 
3.172124e-004 
3.181723e-004 
3.190913e-004 
3.199623e-004 
3.207790e-004 
3.215359e-004 
3.222284e-004 
3.228523e-004 
3.234042e-004 
3.238812e-004 
3.242808e-004 
3.246009e-004 
3.248396e-004 
3.249955e-004 
3.250674e-004 
3.250543e-004 
3.249552e-004 
3.247696e-004 
3.244968e-004 
3.241365e-004 
3.236885e-004 
3.231524e-004 
3.225283e-004 
3.218161e-004 
3.210162e-004 
3.201286e-004 
3.191538e-004 
3.180924e-004 
3.169450e-004 
3.157126e-004 
3.143961e-004 
3.129967e-004 
3.115159e-004 
3.099553e-004 
3.083169e-004 
3.066028e-004 
3.048154e-004 
3.029573e-004 
3.010317e-004 
2.990418e-004 
2.969912e-004 
2.948837e-004 
2.927238e-004 
2.905159e-004 
2.882650e-004 
2.859762e-004 
2.836551e-004 
2.813076e-004 
2.789398e-004 
2.765581e-004 
2.741692e-004 
2.717800e-004 
2.693977e-004 
2.670296e-004 
2.646831e-004 
2.623660e-004 
2.600858e-004 
2.578504e-004 
2.556674e-004 
2.535446e-004 
2.514896e-004 
2.495098e-004 
2.476127e-004 
2.458051e-004 
2.440940e-004 
2.424857e-004 
2.409864e-004 
2.396016e-004 
2.383365e-004 
2.371957e-004 
2.361833e-004 
2.353027e-004 
2.345566e-004 
2.339472e-004 
2.334758e-004 
2.331431e-004 
2.329489e-004 
2.328923e-004 
2.329716e-004 
2.331842e-004 
2.335267e-004 
2.339951e-004 
2.345844e-004 
2.352887e-004 
2.361016e-004 
2.370157e-004 
2.380231e-004 
2.391149e-004 
2.402817e-004 
2.415135e-004 
2.427995e-004 
2.441284e-004 
2.454884e-004 
2.468672e-004 
2.482520e-004 
2.496297e-004 
2.509868e-004 
2.523095e-004 
2.535839e-004 
2.547960e-004 
2.559319e-004 
2.569778e-004 
2.579205e-004 
2.587474e-004 
2.594469e-004 
2.600085e-004 
2.604242e-004 
2.606849e-004 
2.607837e-004 
2.607031e-004 
2.604307e-004 
1.000000e+000 
1.000000e+000 
3.054008e-004 
3.054563e-004 
3.056759e-004 
3.060448e-004 
3.065447e-004 
3.071584e-004 
3.078691e-004 
3.086610e-004 
3.095183e-004 
3.104258e-004 
3.113691e-004 
3.123344e-004 
3.133089e-004 
3.142810e-004 
3.152401e-004 
3.161766e-004 
3.170819e-004 
3.179485e-004 
3.187697e-004 
3.195395e-004 
3.202529e-004 
3.209053e-004 
3.214928e-004 
3.220121e-004 
3.224605e-004 
3.228353e-004 
3.231345e-004 
3.233564e-004 
3.234994e-004 
3.235623e-004 
3.235441e-004 
3.234438e-004 
3.232608e-004 
3.229943e-004 
3.226441e-004 
3.222097e-004 
3.216910e-004 
3.210877e-004 
3.203999e-004 
3.196277e-004 
3.187714e-004 
3.178311e-004 
3.168075e-004 
3.157011e-004 
3.145128e-004 
3.132435e-004 
3.118944e-004 
3.104668e-004 
3.089623e-004 
3.073827e-004 
3.057301e-004 
3.040067e-004 
3.022152e-004 
3.003585e-004 
2.984396e-004 
2.964620e-004 
2.944296e-004 
2.923465e-004 
2.902169e-004 
2.880457e-004 
2.858378e-004 
2.835987e-004 
2.813338e-004 
2.790493e-004 
2.767512e-004 
2.744460e-004 
2.721403e-004 
2.698412e-004 
2.675555e-004 
2.652907e-004 
2.630539e-004 
2.608527e-004 
2.586945e-004 
2.565867e-004 
2.545369e-004 
2.525523e-004 
2.506403e-004 
2.488077e-004 
2.470616e-004 
2.454083e-004 
2.438541e-004 
2.424049e-004 
2.410660e-004 
2.398425e-004 
2.387387e-004 
2.377585e-004 
2.369053e-004 
2.361817e-004 
2.355896e-004 
2.351304e-004 
2.348045e-004 
2.346119e-004 
2.345516e-004 
2.346219e-004 
2.348203e-004 
2.351434e-004 
2.355873e-004 
2.361471e-004 
2.368172e-004 
2.375912e-004 
2.384622e-004 
2.394222e-004 
2.404629e-004 
2.415751e-004 
2.427492e-004 
2.439749e-004 
2.452414e-004 
2.465374e-004 
2.478512e-004 
2.491706e-004 
2.504833e-004 
2.517766e-004 
2.530376e-004 
2.542532e-004 
2.554106e-004 
2.564968e-004 
2.574992e-004 
2.584055e-004 
2.592042e-004 
2.598844e-004 
2.604360e-004 
2.608496e-004 
2.611151e-004 
2.612220e-004 
2.611553e-004 
2.609025e-004 
1.000000e+000 
1.000000e+000 
3.043965e-004 
3.045629e-004 
3.048649e-004 
3.052920e-004 
3.058294e-004 
3.064631e-004 
3.071788e-004 
3.079628e-004 
3.088013e-004 
3.096814e-004 
3.105903e-004 
3.115160e-004 
3.124473e-004 
3.133739e-004 
3.142863e-004 
3.151759e-004 
3.160349e-004 
3.168564e-004 
3.176342e-004 
3.183629e-004 
3.190377e-004 
3.196544e-004 
3.202094e-004 
3.206995e-004 
3.211221e-004 
3.214747e-004 
3.217553e-004 
3.219622e-004 
3.220940e-004 
3.221493e-004 
3.221272e-004 
3.220266e-004 
3.218469e-004 
3.215875e-004 
3.212478e-004 
3.208275e-004 
3.203263e-004 
3.197440e-004 
3.190805e-004 
3.183360e-004 
3.175104e-004 
3.166042e-004 
3.156177e-004 
3.145516e-004 
3.134064e-004 
3.121832e-004 
3.108829e-004 
3.095069e-004 
3.080566e-004 
3.065337e-004 
3.049402e-004 
3.032782e-004 
3.015503e-004 
2.997592e-004 
2.979078e-004 
2.959996e-004 
2.940382e-004 
2.920273e-004 
2.899714e-004 
2.878750e-004 
2.857428e-004 
2.835800e-004 
2.813921e-004 
2.791847e-004 
2.769639e-004 
2.747359e-004 
2.725072e-004 
2.702843e-004 
2.680742e-004 
2.658838e-004 
2.637202e-004 
2.615908e-004 
2.595026e-004 
2.574629e-004 
2.554789e-004 
2.535579e-004 
2.517067e-004 
2.499322e-004 
2.482411e-004 
2.466396e-004 
2.451338e-004 
2.437293e-004 
2.424315e-004 
2.412450e-004 
2.401743e-004 
2.392231e-004 
2.383944e-004 
2.376910e-004 
2.371146e-004 
2.366666e-004 
2.363475e-004 
2.361569e-004 
2.360941e-004 
2.361573e-004 
2.363441e-004 
2.366512e-004 
2.370746e-004 
2.376098e-004 
2.382512e-004 
2.389927e-004 
2.398273e-004 
2.407476e-004 
2.417455e-004 
2.428120e-004 
2.439380e-004 
2.451134e-004 
2.463281e-004 
2.475712e-004 
2.488315e-004 
2.500975e-004 
2.513575e-004 
2.525995e-004 
2.538115e-004 
2.549812e-004 
2.560966e-004 
2.571456e-004 
2.581167e-004 
2.589985e-004 
2.597800e-004 
2.604510e-004 
2.610015e-004 
2.614218e-004 
2.617017e-004 
2.618305e-004 
2.617942e-004 
2.615830e-004 
1.000000e+000 
1.000000e+000 
3.032413e-004 
3.035305e-004 
3.039290e-004 
3.044286e-004 
3.050179e-004 
3.056859e-004 
3.064206e-004 
3.072105e-004 
3.080439e-004 
3.089095e-004 
3.097965e-004 
3.106944e-004 
3.115936e-004 
3.124849e-004 
3.133599e-004 
3.142111e-004 
3.150314e-004 
3.158146e-004 
3.165553e-004 
3.172484e-004 
3.178896e-004 
3.184751e-004 
3.190014e-004 
3.194658e-004 
3.198655e-004 
3.201985e-004 
3.204628e-004 
3.206568e-004 
3.207790e-004 
3.208283e-004 
3.208035e-004 
3.207038e-004 
3.205285e-004 
3.202768e-004 
3.199483e-004 
3.195425e-004 
3.190591e-004 
3.184979e-004 
3.178588e-004 
3.171417e-004 
3.163468e-004 
3.154742e-004 
3.145243e-004 
3.134975e-004 
3.123946e-004 
3.112162e-004 
3.099635e-004 
3.086374e-004 
3.072395e-004 
3.057713e-004 
3.042346e-004 
3.026316e-004 
3.009645e-004 
2.992359e-004 
2.974488e-004 
2.956062e-004 
2.937118e-004 
2.917691e-004 
2.897824e-004 
2.877559e-004 
2.856943e-004 
2.836026e-004 
2.814861e-004 
2.793501e-004 
2.772007e-004 
2.750436e-004 
2.728853e-004 
2.707322e-004 
2.685909e-004 
2.664682e-004 
2.643711e-004 
2.623065e-004 
2.602814e-004 
2.583029e-004 
2.563781e-004 
2.545139e-004 
2.527171e-004 
2.509943e-004 
2.493521e-004 
2.477966e-004 
2.463337e-004 
2.449689e-004 
2.437073e-004 
2.425537e-004 
2.415122e-004 
2.405865e-004 
2.397797e-004 
2.390943e-004 
2.385320e-004 
2.380942e-004 
2.377813e-004 
2.375932e-004 
2.375288e-004 
2.375866e-004 
2.377641e-004 
2.380582e-004 
2.384650e-004 
2.389800e-004 
2.395978e-004 
2.403124e-004 
2.411172e-004 
2.420049e-004 
2.429676e-004 
2.439968e-004 
2.450834e-004 
2.462181e-004 
2.473908e-004 
2.485913e-004 
2.498088e-004 
2.510325e-004 
2.522512e-004 
2.534536e-004 
2.546283e-004 
2.557638e-004 
2.568490e-004 
2.578726e-004 
2.588237e-004 
2.596918e-004 
2.604666e-004 
2.611383e-004 
2.616972e-004 
2.621339e-004 
2.624386e-004 
2.626016e-004 
2.626105e-004 
2.624569e-004 
1.000000e+000 
1.000000e+000 
3.019661e-004 
3.023868e-004 
3.028918e-004 
3.034749e-004 
3.041279e-004 
3.048420e-004 
3.056078e-004 
3.064154e-004 
3.072554e-004 
3.081180e-004 
3.089941e-004 
3.098748e-004 
3.107517e-004 
3.116168e-004 
3.124631e-004 
3.132836e-004 
3.140725e-004 
3.148241e-004 
3.155335e-004 
3.161964e-004 
3.168088e-004 
3.173673e-004 
3.178689e-004 
3.183109e-004 
3.186909e-004 
3.190070e-004 
3.192574e-004 
3.194405e-004 
3.195550e-004 
3.195998e-004 
3.195738e-004 
3.194762e-004 
3.193062e-004 
3.190631e-004 
3.187465e-004 
3.183558e-004 
3.178906e-004 
3.173508e-004 
3.167362e-004 
3.160466e-004 
3.152820e-004 
3.144427e-004 
3.135288e-004 
3.125408e-004 
3.114792e-004 
3.103447e-004 
3.091381e-004 
3.078606e-004 
3.065134e-004 
3.050979e-004 
3.036159e-004 
3.020693e-004 
3.004603e-004 
2.987913e-004 
2.970652e-004 
2.952848e-004 
2.934536e-004 
2.915751e-004 
2.896532e-004 
2.876921e-004 
2.856963e-004 
2.836707e-004 
2.816201e-004 
2.795501e-004 
2.774662e-004 
2.753742e-004 
2.732803e-004 
2.711907e-004 
2.691118e-004 
2.670504e-004 
2.650130e-004 
2.630067e-004 
2.610381e-004 
2.591143e-004 
2.572421e-004 
2.554284e-004 
2.536797e-004 
2.520026e-004 
2.504034e-004 
2.488883e-004 
2.474630e-004 
2.461329e-004 
2.449030e-004 
2.437780e-004 
2.427620e-004 
2.418586e-004 
2.410708e-004 
2.404010e-004 
2.398513e-004 
2.394226e-004 
2.391155e-004 
2.389298e-004 
2.388646e-004 
2.389184e-004 
2.390887e-004 
2.393725e-004 
2.397660e-004 
2.402648e-004 
2.408637e-004 
2.415568e-004 
2.423377e-004 
2.431993e-004 
2.441340e-004 
2.451334e-004 
2.461890e-004 
2.472915e-004 
2.484315e-004 
2.495989e-004 
2.507837e-004 
2.519754e-004 
2.531633e-004 
2.543368e-004 
2.554851e-004 
2.565975e-004 
2.576634e-004 
2.586722e-004 
2.596139e-004 
2.604784e-004 
2.612562e-004 
2.619381e-004 
2.625148e-004 
2.629776e-004 
2.633172e-004 
2.635251e-004 
2.635911e-004 
2.635080e-004 
1.000000e+000 
1.000000e+000 
3.005999e-004 
3.011573e-004 
3.017757e-004 
3.024507e-004 
3.031767e-004 
3.039468e-004 
3.047535e-004 
3.055892e-004 
3.064457e-004 
3.073153e-004 
3.081902e-004 
3.090629e-004 
3.099263e-004 
3.107737e-004 
3.115989e-004 
3.123961e-004 
3.131602e-004 
3.138863e-004 
3.145701e-004 
3.152079e-004 
3.157962e-004 
3.163319e-004 
3.168125e-004 
3.172355e-004 
3.175989e-004 
3.179008e-004 
3.181397e-004 
3.183142e-004 
3.184229e-004 
3.184650e-004 
3.184393e-004 
3.183450e-004 
3.181815e-004 
3.179480e-004 
3.176440e-004 
3.172690e-004 
3.168227e-004 
3.163046e-004 
3.157146e-004 
3.150525e-004 
3.143182e-004 
3.135119e-004 
3.126336e-004 
3.116837e-004 
3.106627e-004 
3.095710e-004 
3.084095e-004 
3.071791e-004 
3.058809e-004 
3.045163e-004 
3.030869e-004 
3.015944e-004 
3.000409e-004 
2.984287e-004 
2.967605e-004 
2.950390e-004 
2.932674e-004 
2.914492e-004 
2.895880e-004 
2.876880e-004 
2.857534e-004 
2.837889e-004 
2.817993e-004 
2.797898e-004 
2.777660e-004 
2.757334e-004 
2.736979e-004 
2.716658e-004 
2.696433e-004 
2.676368e-004 
2.656530e-004 
2.636986e-004 
2.617803e-004 
2.599049e-004 
2.580791e-004 
2.563096e-004 
2.546029e-004 
2.529657e-004 
2.514039e-004 
2.499238e-004 
2.485309e-004 
2.472306e-004 
2.460279e-004 
2.449274e-004 
2.439331e-004 
2.430487e-004 
2.422771e-004 
2.416208e-004 
2.410817e-004 
2.406608e-004 
2.403588e-004 
2.401756e-004 
2.401101e-004 
2.401610e-004 
2.403258e-004 
2.406017e-004 
2.409849e-004 
2.414711e-004 
2.420553e-004 
2.427318e-004 
2.434942e-004 
2.443357e-004 
2.452488e-004 
2.462256e-004 
2.472577e-004 
2.483362e-004 
2.494519e-004 
2.505952e-004 
2.517565e-004 
2.529256e-004 
2.540926e-004 
2.552472e-004 
2.563792e-004 
2.574785e-004 
2.585352e-004 
2.595392e-004 
2.604812e-004 
2.613517e-004 
2.621418e-004 
2.628429e-004 
2.634463e-004 
2.639439e-004 
2.643277e-004 
2.645899e-004 
2.647223e-004 
2.647192e-004 
1.000000e+000 
1.000000e+000 
2.991687e-004 
2.998657e-004 
3.006021e-004 
3.013753e-004 
3.021814e-004 
3.030153e-004 
3.038713e-004 
3.047434e-004 
3.056252e-004 
3.065103e-004 
3.073924e-004 
3.082652e-004 
3.091230e-004 
3.099601e-004 
3.107713e-004 
3.115518e-004 
3.122973e-004 
3.130036e-004 
3.136671e-004 
3.142847e-004 
3.148533e-004 
3.153704e-004 
3.158337e-004 
3.162411e-004 
3.165908e-004 
3.168814e-004 
3.171113e-004 
3.172793e-004 
3.173843e-004 
3.174253e-004 
3.174015e-004 
3.173121e-004 
3.171562e-004 
3.169334e-004 
3.166430e-004 
3.162845e-004 
3.158575e-004 
3.153616e-004 
3.147965e-004 
3.141621e-004 
3.134581e-004 
3.126845e-004 
3.118415e-004 
3.109292e-004 
3.099479e-004 
3.088982e-004 
3.077806e-004 
3.065960e-004 
3.053454e-004 
3.040299e-004 
3.026511e-004 
3.012105e-004 
2.997101e-004 
2.981520e-004 
2.965387e-004 
2.948729e-004 
2.931575e-004 
2.913959e-004 
2.895915e-004 
2.877483e-004 
2.858705e-004 
2.839625e-004 
2.820290e-004 
2.800750e-004 
2.781059e-004 
2.761272e-004 
2.741447e-004 
2.721643e-004 
2.701922e-004 
2.682348e-004 
2.662985e-004 
2.643900e-004 
2.625158e-004 
2.606826e-004 
2.588971e-004 
2.571660e-004 
2.554956e-004 
2.538924e-004 
2.523626e-004 
2.509121e-004 
2.495466e-004 
2.482714e-004 
2.470914e-004 
2.460113e-004 
2.450350e-004 
2.441663e-004 
2.434080e-004 
2.427628e-004 
2.422324e-004 
2.418180e-004 
2.415203e-004 
2.413391e-004 
2.412736e-004 
2.413224e-004 
2.414832e-004 
2.417531e-004 
2.421286e-004 
2.426055e-004 
2.431787e-004 
2.438429e-004 
2.445917e-004 
2.454186e-004 
2.463162e-004 
2.472769e-004 
2.482924e-004 
2.493543e-004 
2.504535e-004 
2.515810e-004 
2.527273e-004 
2.538828e-004 
2.550379e-004 
2.561828e-004 
2.573079e-004 
2.584035e-004 
2.594602e-004 
2.604687e-004 
2.614201e-004 
2.623055e-004 
2.631165e-004 
2.638451e-004 
2.644835e-004 
2.650242e-004 
2.654600e-004 
2.657843e-004 
2.659906e-004 
2.660741e-004 
1.000000e+000 
1.000000e+000 
2.976958e-004 
2.985336e-004 
2.993911e-004 
3.002669e-004 
3.011584e-004 
3.020623e-004 
3.029744e-004 
3.038901e-004 
3.048043e-004 
3.057122e-004 
3.066087e-004 
3.074888e-004 
3.083479e-004 
3.091813e-004 
3.099849e-004 
3.107548e-004 
3.114873e-004 
3.121792e-004 
3.128274e-004 
3.134293e-004 
3.139825e-004 
3.144848e-004 
3.149344e-004 
3.153295e-004 
3.156687e-004 
3.159506e-004 
3.161740e-004 
3.163379e-004 
3.164412e-004 
3.164831e-004 
3.164628e-004 
3.163796e-004 
3.162328e-004 
3.160218e-004 
3.157459e-004 
3.154047e-004 
3.149978e-004 
3.145246e-004 
3.139848e-004 
3.133782e-004 
3.127046e-004 
3.119637e-004 
3.111557e-004 
3.102805e-004 
3.093384e-004 
3.083298e-004 
3.072551e-004 
3.061151e-004 
3.049106e-004 
3.036426e-004 
3.023126e-004 
3.009218e-004 
2.994722e-004 
2.979656e-004 
2.964045e-004 
2.947913e-004 
2.931288e-004 
2.914202e-004 
2.896689e-004 
2.878786e-004 
2.860533e-004 
2.841973e-004 
2.823152e-004 
2.804119e-004 
2.784925e-004 
2.765625e-004 
2.746274e-004 
2.726932e-004 
2.707660e-004 
2.688518e-004 
2.669573e-004 
2.650887e-004 
2.632527e-004 
2.614560e-004 
2.597050e-004 
2.580064e-004 
2.563666e-004 
2.547919e-004 
2.532886e-004 
2.518626e-004 
2.505195e-004 
2.492646e-004 
2.481029e-004 
2.470391e-004 
2.460771e-004 
2.452207e-004 
2.444729e-004 
2.438361e-004 
2.433124e-004 
2.429029e-004 
2.426084e-004 
2.424287e-004 
2.423632e-004 
2.424104e-004 
2.425682e-004 
2.428339e-004 
2.432039e-004 
2.436741e-004 
2.442397e-004 
2.448954e-004 
2.456351e-004 
2.464523e-004 
2.473399e-004 
2.482903e-004 
2.492958e-004 
2.503479e-004 
2.514379e-004 
2.525571e-004 
2.536963e-004 
2.548464e-004 
2.559980e-004 
2.571418e-004 
2.582685e-004 
2.593691e-004 
2.604346e-004 
2.614561e-004 
2.624252e-004 
2.633337e-004 
2.641737e-004 
2.649377e-004 
2.656185e-004 
2.662094e-004 
2.667042e-004 
2.670970e-004 
2.673828e-004 
2.675577e-004 
1.000000e+000 
1.000000e+000 
2.962024e-004 
2.971810e-004 
2.981614e-004 
2.991426e-004 
3.001237e-004 
3.011024e-004 
3.020759e-004 
3.030408e-004 
3.039936e-004 
3.049305e-004 
3.058476e-004 
3.067412e-004 
3.076076e-004 
3.084433e-004 
3.092450e-004 
3.100096e-004 
3.107344e-004 
3.114167e-004 
3.120542e-004 
3.126447e-004 
3.131866e-004 
3.136779e-004 
3.141173e-004 
3.145033e-004 
3.148349e-004 
3.151109e-004 
3.153303e-004 
3.154923e-004 
3.155961e-004 
3.156408e-004 
3.156258e-004 
3.155504e-004 
3.154140e-004 
3.152160e-004 
3.149558e-004 
3.146328e-004 
3.142467e-004 
3.137968e-004 
3.132828e-004 
3.127044e-004 
3.120612e-004 
3.113531e-004 
3.105798e-004 
3.097414e-004 
3.088380e-004 
3.078698e-004 
3.068371e-004 
3.057406e-004 
3.045809e-004 
3.033589e-004 
3.020758e-004 
3.007329e-004 
2.993319e-004 
2.978745e-004 
2.963628e-004 
2.947993e-004 
2.931867e-004 
2.915278e-004 
2.898259e-004 
2.880846e-004 
2.863078e-004 
2.844996e-004 
2.826644e-004 
2.808071e-004 
2.789326e-004 
2.770462e-004 
2.751535e-004 
2.732602e-004 
2.713722e-004 
2.694959e-004 
2.676373e-004 
2.658031e-004 
2.639996e-004 
2.622335e-004 
2.605114e-004 
2.588397e-004 
2.572249e-004 
2.556734e-004 
2.541913e-004 
2.527845e-004 
2.514589e-004 
2.502197e-004 
2.490719e-004 
2.480202e-004 
2.470688e-004 
2.462212e-004 
2.454807e-004 
2.448498e-004 
2.443305e-004 
2.439241e-004 
2.436315e-004 
2.434525e-004 
2.433866e-004 
2.434325e-004 
2.435880e-004 
2.438507e-004 
2.442170e-004 
2.446829e-004 
2.452438e-004 
2.458944e-004 
2.466289e-004 
2.474408e-004 
2.483233e-004 
2.492690e-004 
2.502702e-004 
2.513187e-004 
2.524063e-004 
2.535241e-004 
2.546636e-004 
2.558157e-004 
2.569716e-004 
2.581222e-004 
2.592586e-004 
2.603723e-004 
2.614545e-004 
2.624969e-004 
2.634916e-004 
2.644308e-004 
2.653071e-004 
2.661136e-004 
2.668436e-004 
2.674912e-004 
2.680507e-004 
2.685174e-004 
2.688869e-004 
2.691564e-004 
1.000000e+000 
1.000000e+000 
2.947078e-004 
2.958265e-004 
2.969302e-004 
2.980189e-004 
2.990923e-004 
3.001494e-004 
3.011885e-004 
3.022073e-004 
3.032036e-004 
3.041746e-004 
3.051177e-004 
3.060301e-004 
3.069091e-004 
3.077523e-004 
3.085571e-004 
3.093215e-004 
3.100432e-004 
3.107204e-004 
3.113514e-004 
3.119348e-004 
3.124690e-004 
3.129529e-004 
3.133855e-004 
3.137656e-004 
3.140925e-004 
3.143653e-004 
3.145832e-004 
3.147457e-004 
3.148520e-004 
3.149014e-004 
3.148935e-004 
3.148276e-004 
3.147030e-004 
3.145194e-004 
3.142759e-004 
3.139723e-004 
3.136077e-004 
3.131819e-004 
3.126943e-004 
3.121445e-004 
3.115320e-004 
3.108566e-004 
3.101180e-004 
3.093162e-004 
3.084510e-004 
3.075226e-004 
3.065311e-004 
3.054771e-004 
3.043610e-004 
3.031836e-004 
3.019459e-004 
3.006490e-004 
2.992945e-004 
2.978840e-004 
2.964193e-004 
2.949028e-004 
2.933370e-004 
2.917246e-004 
2.900687e-004 
2.883729e-004 
2.866407e-004 
2.848762e-004 
2.830837e-004 
2.812678e-004 
2.794335e-004 
2.775860e-004 
2.757306e-004 
2.738730e-004 
2.720192e-004 
2.701752e-004 
2.683473e-004 
2.665418e-004 
2.647653e-004 
2.630243e-004 
2.613254e-004 
2.596751e-004 
2.580799e-004 
2.565461e-004 
2.550800e-004 
2.536875e-004 
2.523744e-004 
2.511462e-004 
2.500078e-004 
2.489641e-004 
2.480193e-004 
2.471770e-004 
2.464406e-004 
2.458127e-004 
2.452954e-004 
2.448902e-004 
2.445978e-004 
2.444184e-004 
2.443516e-004 
2.443959e-004 
2.445496e-004 
2.448101e-004 
2.451741e-004 
2.456377e-004 
2.461963e-004 
2.468449e-004 
2.475776e-004 
2.483882e-004 
2.492700e-004 
2.502157e-004 
2.512179e-004 
2.522687e-004 
2.533597e-004 
2.544827e-004 
2.556291e-004 
2.567903e-004 
2.579576e-004 
2.591223e-004 
2.602759e-004 
2.614100e-004 
2.625164e-004 
2.635872e-004 
2.646147e-004 
2.655916e-004 
2.665109e-004 
2.673663e-004 
2.681516e-004 
2.688614e-004 
2.694907e-004 
2.700354e-004 
2.704920e-004 
2.708582e-004 
1.000000e+000 
1.000000e+000 
2.932293e-004 
2.944870e-004 
2.957141e-004 
2.969111e-004 
2.980787e-004 
2.992168e-004 
3.003247e-004 
3.014012e-004 
3.024450e-004 
3.034544e-004 