# vtk DataFile Version 2.0
2D-ADE data file 
ASCII
DATASET RECTILINEAR_GRID
DIMENSIONS 128 128 1
X_COORDINATES 128 int
0 1 2 3 4 5 6 7 8 9 10 11 12 13 14 15 16 17 18 19 20 21 22 23 24 25 26 27 28 29 30 31 32 33 34 35 36 37 38 39 40 41 42 43 44 45 46 47 48 49 50 51 52 53 54 55 56 57 58 59 60 61 62 63 64 65 66 67 68 69 70 71 72 73 74 75 76 77 78 79 80 81 82 83 84 85 86 87 88 89 90 91 92 93 94 95 96 97 98 99 100 101 102 103 104 105 106 107 108 109 110 111 112 113 114 115 116 117 118 119 120 121 122 123 124 125 126 127 
Y_COORDINATES 128 int
0 1 2 3 4 5 6 7 8 9 10 11 12 13 14 15 16 17 18 19 20 21 22 23 24 25 26 27 28 29 30 31 32 33 34 35 36 37 38 39 40 41 42 43 44 45 46 47 48 49 50 51 52 53 54 55 56 57 58 59 60 61 62 63 64 65 66 67 68 69 70 71 72 73 74 75 76 77 78 79 80 81 82 83 84 85 86 87 88 89 90 91 92 93 94 95 96 97 98 99 100 101 102 103 104 105 106 107 108 109 110 111 112 113 114 115 116 117 118 119 120 121 122 123 124 125 126 127 
Z_COORDINATES 1 int
0
POINT_DATA 16384 
SCALARS density double 1
LOOKUP_TABLE default
1.000000e+000 
1.000000e+000 
1.000000e+000 
1.000000e+000 
1.000000e+000 
1.000000e+000 
1.000000e+000 
1.000000e+000 
1.000000e+000 
1.000000e+000 
1.000000e+000 
1.000000e+000 
1.000000e+000 
1.000000e+000 
1.000000e+000 
1.000000e+000 
1.000000e+000 
1.000000e+000 
1.000000e+000 
1.000000e+000 
1.000000e+000 
1.000000e+000 
1.000000e+000 
1.000000e+000 
1.000000e+000 
1.000000e+000 
1.000000e+000 
1.000000e+000 
1.000000e+000 
1.000000e+000 
1.000000e+000 
1.000000e+000 
1.000000e+000 
1.000000e+000 
1.000000e+000 
1.000000e+000 
1.000000e+000 
1.000000e+000 
1.000000e+000 
1.000000e+000 
1.000000e+000 
1.000000e+000 
1.000000e+000 
1.000000e+000 
1.000000e+000 
1.000000e+000 
1.000000e+000 
1.000000e+000 
1.000000e+000 
1.000000e+000 
1.000000e+000 
1.000000e+000 
1.000000e+000 
1.000000e+000 
1.000000e+000 
1.000000e+000 
1.000000e+000 
1.000000e+000 
1.000000e+000 
1.000000e+000 
1.000000e+000 
1.000000e+000 
1.000000e+000 
1.000000e+000 
1.000000e+000 
1.000000e+000 
1.000000e+000 
1.000000e+000 
1.000000e+000 
1.000000e+000 
1.000000e+000 
1.000000e+000 
1.000000e+000 
1.000000e+000 
1.000000e+000 
1.000000e+000 
1.000000e+000 
1.000000e+000 
1.000000e+000 
1.000000e+000 
1.000000e+000 
1.000000e+000 
1.000000e+000 
1.000000e+000 
1.000000e+000 
1.000000e+000 
1.000000e+000 
1.000000e+000 
1.000000e+000 
1.000000e+000 
1.000000e+000 
1.000000e+000 
1.000000e+000 
1.000000e+000 
1.000000e+000 
1.000000e+000 
1.000000e+000 
1.000000e+000 
1.000000e+000 
1.000000e+000 
1.000000e+000 
1.000000e+000 
1.000000e+000 
1.000000e+000 
1.000000e+000 
1.000000e+000 
1.000000e+000 
1.000000e+000 
1.000000e+000 
1.000000e+000 
1.000000e+000 
1.000000e+000 
1.000000e+000 
1.000000e+000 
1.000000e+000 
1.000000e+000 
1.000000e+000 
1.000000e+000 
1.000000e+000 
1.000000e+000 
1.000000e+000 
1.000000e+000 
1.000000e+000 
1.000000e+000 
1.000000e+000 
1.000000e+000 
1.000000e+000 
1.000000e+000 
1.000000e+000 
3.071106e-004 
3.070208e-004 
3.071052e-004 
3.074358e-004 
3.080271e-004 
3.088375e-004 
3.098255e-004 
3.109542e-004 
3.121906e-004 
3.135041e-004 
3.148679e-004 
3.162585e-004 
3.176554e-004 
3.190410e-004 
3.203999e-004 
3.217191e-004 
3.229873e-004 
3.241950e-004 
3.253341e-004 
3.263980e-004 
3.273808e-004 
3.282779e-004 
3.290855e-004 
3.298004e-004 
3.304200e-004 
3.309422e-004 
3.313655e-004 
3.316884e-004 
3.319100e-004 
3.320296e-004 
3.320466e-004 
3.319604e-004 
3.317709e-004 
3.314779e-004 
3.310812e-004 
3.305809e-004 
3.299769e-004 
3.292695e-004 
3.284588e-004 
3.275452e-004 
3.265291e-004 
3.254109e-004 
3.241914e-004 
3.228713e-004 
3.214516e-004 
3.199334e-004 
3.183180e-004 
3.166072e-004 
3.148026e-004 
3.129064e-004 
3.109210e-004 
3.088491e-004 
3.066937e-004 
3.044582e-004 
3.021464e-004 
2.997623e-004 
2.973105e-004 
2.947957e-004 
2.922234e-004 
2.895992e-004 
2.869291e-004 
2.842195e-004 
2.814774e-004 
2.787098e-004 
2.759243e-004 
2.731288e-004 
2.703315e-004 
2.675407e-004 
2.647651e-004 
2.620137e-004 
2.592955e-004 
2.566195e-004 
2.539952e-004 
2.514317e-004 
2.489382e-004 
2.465240e-004 
2.441980e-004 
2.419691e-004 
2.398459e-004 
2.378365e-004 
2.359488e-004 
2.341904e-004 
2.325681e-004 
2.310883e-004 
2.297568e-004 
2.285787e-004 
2.275584e-004 
2.266996e-004 
2.260050e-004 
2.254768e-004 
2.251160e-004 
2.249228e-004 
2.248965e-004 
2.250354e-004 
2.253370e-004 
2.257977e-004 
2.264127e-004 
2.271767e-004 
2.280832e-004 
2.291245e-004 
2.302924e-004 
2.315776e-004 
2.329698e-004 
2.344579e-004 
2.360299e-004 
2.376732e-004 
2.393742e-004 
2.411184e-004 
2.428908e-004 
2.446757e-004 
2.464563e-004 
2.482155e-004 
2.499354e-004 
2.515973e-004 
2.531821e-004 
2.546698e-004 
2.560401e-004 
2.572723e-004 
2.583456e-004 
2.592395e-004 
2.599360e-004 
2.604186e-004 
2.606756e-004 
2.607095e-004 
2.605987e-004 
2.604454e-004 
1.000000e+000 
1.000000e+000 
3.072006e-004 
3.071106e-004 
3.072116e-004 
3.075347e-004 
3.080643e-004 
3.087834e-004 
3.096638e-004 
3.106755e-004 
3.117893e-004 
3.129787e-004 
3.142195e-004 
3.154902e-004 
3.167717e-004 
3.180472e-004 
3.193022e-004 
3.205240e-004 
3.217015e-004 
3.228253e-004 
3.238874e-004 
3.248810e-004 
3.258001e-004 
3.266401e-004 
3.273968e-004 
3.280668e-004 
3.286473e-004 
3.291361e-004 
3.295313e-004 
3.298314e-004 
3.300352e-004 
3.301418e-004 
3.301504e-004 
3.300604e-004 
3.298715e-004 
3.295833e-004 
3.291957e-004 
3.287085e-004 
3.281217e-004 
3.274355e-004 
3.266500e-004 
3.257655e-004 
3.247824e-004 
3.237011e-004 
3.225224e-004 
3.212470e-004 
3.198759e-004 
3.184102e-004 
3.168513e-004 
3.152007e-004 
3.134603e-004 
3.116321e-004 
3.097185e-004 
3.077221e-004 
3.056459e-004 
3.034933e-004 
3.012678e-004 
2.989734e-004 
2.966146e-004 
2.941960e-004 
2.917227e-004 
2.892003e-004 
2.866345e-004 
2.840315e-004 
2.813980e-004 
2.787408e-004 
2.760671e-004 
2.733845e-004 
2.707008e-004 
2.680240e-004 
2.653625e-004 
2.627248e-004 
2.601193e-004 
2.575550e-004 
2.550405e-004 
2.525847e-004 
2.501964e-004 
2.478843e-004 
2.456569e-004 
2.435226e-004 
2.414895e-004 
2.395654e-004 
2.377577e-004 
2.360735e-004 
2.345192e-004 
2.331010e-004 
2.318241e-004 
2.306935e-004 
2.297131e-004 
2.288863e-004 
2.282159e-004 
2.277034e-004 
2.273500e-004 
2.271556e-004 
2.271196e-004 
2.272401e-004 
2.275147e-004 
2.279397e-004 
2.285106e-004 
2.292222e-004 
2.300681e-004 
2.310410e-004 
2.321329e-004 
2.333349e-004 
2.346370e-004 
2.360287e-004 
2.374985e-004 
2.390341e-004 
2.406228e-004 
2.422507e-004 
2.439035e-004 
2.455662e-004 
2.472232e-004 
2.488582e-004 
2.504543e-004 
2.519944e-004 
2.534606e-004 
2.548347e-004 
2.560985e-004 
2.572335e-004 
2.582221e-004 
2.590471e-004 
2.596937e-004 
2.601513e-004 
2.604179e-004 
2.605049e-004 
2.604453e-004 
2.602920e-004 
1.000000e+000 
1.000000e+000 
3.071163e-004 
3.070094e-004 
3.071106e-004 
3.074208e-004 
3.079116e-004 
3.085707e-004 
3.093740e-004 
3.102966e-004 
3.113139e-004 
3.124028e-004 
3.135419e-004 
3.147115e-004 
3.158941e-004 
3.170742e-004 
3.182378e-004 
3.193731e-004 
3.204692e-004 
3.215173e-004 
3.225092e-004 
3.234383e-004 
3.242987e-004 
3.250856e-004 
3.257947e-004 
3.264227e-004 
3.269665e-004 
3.274238e-004 
3.277925e-004 
3.280710e-004 
3.282579e-004 
3.283523e-004 
3.283532e-004 
3.282598e-004 
3.280718e-004 
3.277887e-004 
3.274102e-004 
3.269362e-004 
3.263666e-004 
3.257014e-004 
3.249408e-004 
3.240850e-004 
3.231344e-004 
3.220894e-004 
3.209508e-004 
3.197191e-004 
3.183955e-004 
3.169810e-004 
3.154769e-004 
3.138848e-004 
3.122064e-004 
3.104438e-004 
3.085993e-004 
3.066755e-004 
3.046753e-004 
3.026018e-004 
3.004587e-004 
2.982497e-004 
2.959792e-004 
2.936517e-004 
2.912720e-004 
2.888455e-004 
2.863779e-004 
2.838750e-004 
2.813433e-004 
2.787892e-004 
2.762199e-004 
2.736424e-004 
2.710644e-004 
2.684934e-004 
2.659376e-004 
2.634049e-004 
2.609036e-004 
2.584421e-004 
2.560288e-004 
2.536721e-004 
2.513803e-004 
2.491618e-004 
2.470247e-004 
2.449770e-004 
2.430263e-004 
2.411801e-004 
2.394455e-004 
2.378290e-004 
2.363369e-004 
2.349748e-004 
2.337479e-004 
2.326606e-004 
2.317167e-004 
2.309195e-004 
2.302712e-004 
2.297736e-004 
2.294274e-004 
2.292327e-004 
2.291885e-004 
2.292932e-004 
2.295442e-004 
2.299379e-004 
2.304701e-004 
2.311354e-004 
2.319278e-004 
2.328403e-004 
2.338651e-004 
2.349935e-004 
2.362161e-004 
2.375226e-004 
2.389022e-004 
2.403430e-004 
2.418328e-004 
2.433586e-004 
2.449066e-004 
2.464627e-004 
2.480120e-004 
2.495393e-004 
2.510290e-004 
2.524647e-004 
2.538303e-004 
2.551090e-004 
2.562843e-004 
2.573399e-004 
2.582602e-004 
2.590310e-004 
2.596399e-004 
2.600782e-004 
2.603436e-004 
2.604459e-004 
2.603855e-004 
2.601805e-004 
1.000000e+000 
1.000000e+000 
3.067846e-004 
3.066851e-004 
3.068003e-004 
3.071118e-004 
3.075883e-004 
3.082131e-004 
3.089649e-004 
3.098236e-004 
3.107683e-004 
3.117786e-004 
3.128356e-004 
3.139218e-004 
3.150212e-004 
3.161196e-004 
3.172041e-004 
3.182634e-004 
3.192875e-004 
3.202677e-004 
3.211963e-004 
3.220667e-004 
3.228734e-004 
3.236114e-004 
3.242766e-004 
3.248655e-004 
3.253751e-004 
3.258028e-004 
3.261468e-004 
3.264051e-004 
3.265763e-004 
3.266594e-004 
3.266532e-004 
3.265571e-004 
3.263704e-004 
3.260927e-004 
3.257236e-004 
3.252628e-004 
3.247103e-004 
3.240660e-004 
3.233301e-004 
3.225027e-004 
3.215841e-004 
3.205748e-004 
3.194754e-004 
3.182866e-004 
3.170093e-004 
3.156446e-004 
3.141938e-004 
3.126584e-004 
3.110400e-004 
3.093408e-004 
3.075628e-004 
3.057087e-004 
3.037811e-004 
3.017833e-004 
2.997187e-004 
2.975909e-004 
2.954041e-004 
2.931626e-004 
2.908713e-004 
2.885352e-004 
2.861597e-004 
2.837506e-004 
2.813140e-004 
2.788562e-004 
2.763840e-004 
2.739042e-004 
2.714241e-004 
2.689510e-004 
2.664927e-004 
2.640569e-004 
2.616515e-004 
2.592845e-004 
2.569639e-004 
2.546979e-004 
2.524944e-004 
2.503614e-004 
2.483066e-004 
2.463377e-004 
2.444621e-004 
2.426868e-004 
2.410185e-004 
2.394635e-004 
2.380279e-004 
2.367168e-004 
2.355353e-004 
2.344874e-004 
2.335769e-004 
2.328067e-004 
2.321790e-004 
2.316952e-004 
2.313562e-004 
2.311618e-004 
2.311111e-004 
2.312023e-004 
2.314330e-004 
2.317997e-004 
2.322982e-004 
2.329232e-004 
2.336690e-004 
2.345287e-004 
2.354947e-004 
2.365589e-004 
2.377119e-004 
2.389442e-004 
2.402450e-004 
2.416033e-004 
2.430072e-004 
2.444443e-004 
2.459017e-004 
2.473658e-004 
2.488228e-004 
2.502582e-004 
2.516574e-004 
2.530054e-004 
2.542870e-004 
2.554871e-004 
2.565907e-004 
2.575831e-004 
2.584504e-004 
2.591799e-004 
2.597610e-004 
2.601860e-004 
2.604490e-004 
2.605496e-004 
2.604714e-004 
2.602117e-004 
1.000000e+000 
1.000000e+000 
3.061895e-004 
3.061520e-004 
3.063082e-004 
3.066378e-004 
3.071169e-004 
3.077270e-004 
3.084492e-004 
3.092656e-004 
3.101580e-004 
3.111088e-004 
3.121014e-004 
3.131202e-004 
3.141510e-004 
3.151807e-004 
3.161976e-004 
3.171911e-004 
3.181521e-004 
3.190722e-004 
3.199442e-004 
3.207620e-004 
3.215200e-004 
3.222135e-004 
3.228384e-004 
3.233914e-004 
3.238694e-004 
3.242700e-004 
3.245911e-004 
3.248308e-004 
3.249876e-004 
3.250605e-004 
3.250482e-004 
3.249500e-004 
3.247652e-004 
3.244933e-004 
3.241338e-004 
3.236865e-004 
3.231512e-004 
3.225278e-004 
3.218163e-004 
3.210170e-004 
3.201300e-004 
3.191558e-004 
3.180949e-004 
3.169480e-004 
3.157160e-004 
3.143998e-004 
3.130008e-004 
3.115203e-004 
3.099600e-004 
3.083218e-004 
3.066078e-004 
3.048205e-004 
3.029626e-004 
3.010370e-004 
2.990471e-004 
2.969964e-004 
2.948889e-004 
2.927288e-004 
2.905207e-004 
2.882696e-004 
2.859806e-004 
2.836592e-004 
2.813114e-004 
2.789433e-004 
2.765613e-004 
2.741721e-004 
2.717826e-004 
2.693999e-004 
2.670315e-004 
2.646847e-004 
2.623672e-004 
2.600868e-004 
2.578510e-004 
2.556678e-004 
2.535448e-004 
2.514896e-004 
2.495097e-004 
2.476124e-004 
2.458048e-004 
2.440937e-004 
2.424855e-004 
2.409863e-004 
2.396016e-004 
2.383368e-004 
2.371963e-004 
2.361843e-004 
2.353041e-004 
2.345586e-004 
2.339497e-004 
2.334790e-004 
2.331470e-004 
2.329536e-004 
2.328979e-004 
2.329780e-004 
2.331916e-004 
2.335351e-004 
2.340046e-004 
2.345949e-004 
2.353004e-004 
2.361145e-004 
2.370298e-004 
2.380384e-004 
2.391314e-004 
2.402995e-004 
2.415325e-004 
2.428196e-004 
2.441497e-004 
2.455109e-004 
2.468908e-004 
2.482767e-004 
2.496555e-004 
2.510135e-004 
2.523372e-004 
2.536124e-004 
2.548253e-004 
2.559619e-004 
2.570084e-004 
2.579516e-004 
2.587789e-004 
2.594787e-004 
2.600406e-004 
2.604564e-004 
2.607171e-004 
2.608159e-004 
2.607351e-004 
2.604624e-004 
1.000000e+000 
1.000000e+000 
3.053699e-004 
3.054253e-004 
3.056450e-004 
3.060141e-004 
3.065143e-004 
3.071284e-004 
3.078396e-004 
3.086321e-004 
3.094901e-004 
3.103984e-004 
3.113425e-004 
3.123086e-004 
3.132840e-004 
3.142571e-004 
3.152171e-004 
3.161546e-004 
3.170610e-004 
3.179286e-004 
3.187508e-004 
3.195217e-004 
3.202361e-004 
3.208895e-004 
3.214780e-004 
3.219984e-004 
3.224477e-004 
3.228235e-004 
3.231237e-004 
3.233466e-004 
3.234905e-004 
3.235544e-004 
3.235371e-004 
3.234376e-004 
3.232554e-004 
3.229899e-004 
3.226404e-004 
3.222069e-004 
3.216889e-004 
3.210863e-004 
3.203992e-004 
3.196277e-004 
3.187719e-004 
3.178323e-004 
3.168092e-004 
3.157034e-004 
3.145155e-004 
3.132467e-004 
3.118979e-004 
3.104707e-004 
3.089665e-004 
3.073871e-004 
3.057347e-004 
3.040115e-004 
3.022201e-004 
3.003634e-004 
2.984446e-004 
2.964671e-004 
2.944346e-004 
2.923514e-004 
2.902217e-004 
2.880503e-004 
2.858423e-004 
2.836029e-004 
2.813379e-004 
2.790531e-004 
2.767547e-004 
2.744492e-004 
2.721433e-004 
2.698439e-004 
2.675580e-004 
2.652928e-004 
2.630558e-004 
2.608543e-004 
2.586959e-004 
2.565879e-004 
2.545379e-004 
2.525532e-004 
2.506410e-004 
2.488084e-004 
2.470622e-004 
2.454089e-004 
2.438548e-004 
2.424058e-004 
2.410671e-004 
2.398438e-004 
2.387404e-004 
2.377606e-004 
2.369078e-004 
2.361847e-004 
2.355932e-004 
2.351346e-004 
2.348095e-004 
2.346177e-004 
2.345582e-004 
2.346294e-004 
2.348287e-004 
2.351528e-004 
2.355977e-004 
2.361586e-004 
2.368298e-004 
2.376049e-004 
2.384770e-004 
2.394382e-004 
2.404801e-004 
2.415935e-004 
2.427688e-004 
2.439956e-004 
2.452633e-004 
2.465604e-004 
2.478753e-004 
2.491958e-004 
2.505095e-004 
2.518037e-004 
2.530656e-004 
2.542820e-004 
2.554401e-004 
2.565270e-004 
2.575300e-004 
2.584368e-004 
2.592359e-004 
2.599164e-004 
2.604682e-004 
2.608819e-004 
2.611474e-004 
2.612543e-004 
2.611874e-004 
2.609342e-004 
1.000000e+000 
1.000000e+000 
3.043650e-004 
3.045313e-004 
3.048334e-004 
3.052607e-004 
3.057985e-004 
3.064326e-004 
3.071488e-004 
3.079334e-004 
3.087726e-004 
3.096534e-004 
3.105631e-004 
3.114896e-004 
3.124219e-004 
3.133494e-004 
3.142627e-004 
3.151533e-004 
3.160132e-004 
3.168357e-004 
3.176145e-004 
3.183442e-004 
3.190200e-004 
3.196377e-004 
3.201937e-004 
3.206849e-004 
3.211084e-004 
3.214620e-004 
3.217435e-004 
3.219514e-004 
3.220841e-004 
3.221404e-004 
3.221191e-004 
3.220195e-004 
3.218407e-004 
3.215821e-004 
3.212433e-004 
3.208237e-004 
3.203233e-004 
3.197417e-004 
3.190790e-004 
3.183351e-004 
3.175102e-004 
3.166046e-004 
3.156187e-004 
3.145531e-004 
3.134084e-004 
3.121857e-004 
3.108858e-004 
3.095102e-004 
3.080602e-004 
3.065376e-004 
3.049444e-004 
3.032826e-004 
3.015549e-004 
2.997639e-004 
2.979127e-004 
2.960045e-004 
2.940431e-004 
2.920322e-004 
2.899763e-004 
2.878797e-004 
2.857474e-004 
2.835845e-004 
2.813964e-004 
2.791889e-004 
2.769679e-004 
2.747396e-004 
2.725106e-004 
2.702875e-004 
2.680772e-004 
2.658865e-004 
2.637228e-004 
2.615931e-004 
2.595047e-004 
2.574648e-004 
2.554808e-004 
2.535596e-004 
2.517083e-004 
2.499338e-004 
2.482426e-004 
2.466412e-004 
2.451355e-004 
2.437312e-004 
2.424336e-004 
2.412474e-004 
2.401770e-004 
2.392262e-004 
2.383980e-004 
2.376951e-004 
2.371193e-004 
2.366719e-004 
2.363534e-004 
2.361637e-004 
2.361017e-004 
2.361657e-004 
2.363534e-004 
2.366614e-004 
2.370859e-004 
2.376221e-004 
2.382646e-004 
2.390072e-004 
2.398429e-004 
2.407644e-004 
2.417634e-004 
2.428311e-004 
2.439581e-004 
2.451348e-004 
2.463505e-004 
2.475947e-004 
2.488560e-004 
2.501231e-004 
2.513841e-004 
2.526270e-004 
2.538398e-004 
2.550103e-004 
2.561264e-004 
2.571761e-004 
2.581477e-004 
2.590300e-004 
2.598119e-004 
2.604832e-004 
2.610340e-004 
2.614544e-004 
2.617343e-004 
2.618629e-004 
2.618265e-004 
2.616150e-004 
1.000000e+000 
1.000000e+000 
3.032089e-004 
3.034982e-004 
3.038968e-004 
3.043967e-004 
3.049864e-004 
3.056548e-004 
3.063901e-004 
3.071806e-004 
3.080146e-004 
3.088810e-004 
3.097687e-004 
3.106675e-004 
3.115675e-004 
3.124597e-004 
3.133356e-004 
3.141877e-004 
3.150090e-004 
3.157932e-004 
3.165348e-004 
3.172289e-004 
3.178711e-004 
3.184575e-004 
3.189849e-004 
3.194502e-004 
3.198509e-004 
3.201849e-004 
3.204502e-004 
3.206451e-004 
3.207683e-004 
3.208184e-004 
3.207946e-004 
3.206958e-004 
3.205213e-004 
3.202705e-004 
3.199428e-004 
3.195378e-004 
3.190552e-004 
3.184948e-004 
3.178564e-004 
3.171401e-004 
3.163458e-004 
3.154739e-004 
3.145246e-004 
3.134984e-004 
3.123960e-004 
3.112182e-004 
3.099659e-004 
3.086403e-004 
3.072427e-004 
3.057749e-004 
3.042385e-004 
3.026357e-004 
3.009688e-004 
2.992405e-004 
2.974535e-004 
2.956110e-004 
2.937166e-004 
2.917740e-004 
2.897873e-004 
2.877608e-004 
2.856991e-004 
2.836073e-004 
2.814907e-004 
2.793546e-004 
2.772050e-004 
2.750478e-004 
2.728893e-004 
2.707360e-004 
2.685945e-004 
2.664716e-004 
2.643743e-004 
2.623095e-004 
2.602843e-004 
2.583057e-004 
2.563807e-004 
2.545164e-004 
2.527196e-004 
2.509968e-004 
2.493546e-004 
2.477992e-004 
2.463364e-004 
2.449718e-004 
2.437104e-004 
2.425571e-004 
2.415159e-004 
2.405906e-004 
2.397843e-004 
2.390993e-004 
2.385377e-004 
2.381005e-004 
2.377883e-004 
2.376009e-004 
2.375373e-004 
2.375959e-004 
2.377743e-004 
2.380694e-004 
2.384772e-004 
2.389932e-004 
2.396120e-004 
2.403277e-004 
2.411336e-004 
2.420224e-004 
2.429862e-004 
2.440165e-004 
2.451042e-004 
2.462400e-004 
2.474138e-004 
2.486153e-004 
2.498339e-004 
2.510586e-004 
2.522782e-004 
2.534815e-004 
2.546570e-004 
2.557933e-004 
2.568792e-004 
2.579034e-004 
2.588551e-004 
2.597236e-004 
2.604988e-004 
2.611708e-004 
2.617299e-004 
2.621668e-004 
2.624715e-004 
2.626344e-004 
2.626431e-004 
2.624892e-004 
1.000000e+000 
1.000000e+000 
3.019328e-004 
3.023536e-004 
3.028588e-004 
3.034422e-004 
3.040956e-004 
3.048103e-004 
3.055766e-004 
3.063849e-004 
3.072255e-004 
3.080889e-004 
3.089657e-004 
3.098472e-004 
3.107249e-004 
3.115910e-004 
3.124381e-004 
3.132596e-004 
3.140493e-004 
3.148019e-004 
3.155123e-004 
3.161761e-004 
3.167895e-004 
3.173490e-004 
3.178515e-004 
3.182944e-004 
3.186754e-004 
3.189925e-004 
3.192438e-004 
3.194279e-004 
3.195433e-004 
3.195890e-004 
3.195640e-004 
3.194673e-004 
3.192981e-004 
3.190559e-004 
3.187401e-004 
3.183503e-004 
3.178860e-004 
3.173470e-004 
3.167331e-004 
3.160442e-004 
3.152804e-004 
3.144417e-004 
3.135285e-004 
3.125411e-004 
3.114801e-004 
3.103461e-004 
3.091401e-004 
3.078630e-004 
3.065163e-004 
3.051012e-004 
3.036195e-004 
3.020732e-004 
3.004645e-004 
2.987958e-004 
2.970698e-004 
2.952896e-004 
2.934585e-004 
2.915801e-004 
2.896582e-004 
2.876972e-004 
2.857014e-004 
2.836757e-004 
2.816251e-004 
2.795550e-004 
2.774709e-004 
2.753788e-004 
2.732848e-004 
2.711950e-004 
2.691160e-004 
2.670544e-004 
2.650169e-004 
2.630104e-004 
2.610418e-004 
2.591179e-004 
2.572456e-004 
2.554318e-004 
2.536830e-004 
2.520060e-004 
2.504069e-004 
2.488918e-004 
2.474666e-004 
2.461367e-004 
2.449071e-004 
2.437824e-004 
2.427667e-004 
2.418636e-004 
2.410763e-004 
2.404071e-004 
2.398579e-004 
2.394298e-004 
2.391234e-004 
2.389384e-004 
2.388740e-004 
2.389286e-004 
2.390998e-004 
2.393845e-004 
2.397790e-004 
2.402788e-004 
2.408787e-004 
2.415729e-004 
2.423549e-004 
2.432175e-004 
2.441533e-004 
2.451538e-004 
2.462104e-004 
2.473140e-004 
2.484550e-004 
2.496235e-004 
2.508093e-004 
2.520019e-004 
2.531908e-004 
2.543652e-004 
2.555143e-004 
2.566274e-004 
2.576940e-004 
2.587034e-004 
2.596456e-004 
2.605107e-004 
2.612889e-004 
2.619710e-004 
2.625480e-004 
2.630108e-004 
2.633505e-004 
2.635583e-004 
2.636242e-004 
2.635408e-004 
1.000000e+000 
1.000000e+000 
3.005655e-004 
3.011231e-004 
3.017418e-004 
3.024173e-004 
3.031437e-004 
3.039143e-004 
3.047216e-004 
3.055579e-004 
3.064152e-004 
3.072855e-004 
3.081611e-004 
3.090346e-004 
3.098989e-004 
3.107471e-004 
3.115732e-004 
3.123713e-004 
3.131363e-004 
3.138633e-004 
3.145481e-004 
3.151868e-004 
3.157760e-004 
3.163127e-004 
3.167943e-004 
3.172182e-004 
3.175826e-004 
3.178854e-004 
3.181253e-004 
3.183007e-004 
3.184104e-004 
3.184533e-004 
3.184286e-004 
3.183352e-004 
3.181726e-004 
3.179400e-004 
3.176369e-004 
3.172628e-004 
3.168173e-004 
3.163000e-004 
3.157108e-004 
3.150495e-004 
3.143160e-004 
3.135103e-004 
3.126328e-004 
3.116835e-004 
3.106631e-004 
3.095720e-004 
3.084111e-004 
3.071812e-004 
3.058835e-004 
3.045193e-004 
3.030903e-004 
3.015982e-004 
3.000450e-004 
2.984332e-004 
2.967651e-004 
2.950438e-004 
2.932724e-004 
2.914543e-004 
2.895933e-004 
2.876933e-004 
2.857588e-004 
2.837942e-004 
2.818046e-004 
2.797951e-004 
2.777712e-004 
2.757385e-004 
2.737030e-004 
2.716707e-004 
2.696481e-004 
2.676415e-004 
2.656577e-004 
2.637031e-004 
2.617847e-004 
2.599092e-004 
2.580833e-004 
2.563138e-004 
2.546072e-004 
2.529699e-004 
2.514083e-004 
2.499282e-004 
2.485354e-004 
2.472353e-004 
2.460329e-004 
2.449327e-004 
2.439388e-004 
2.430547e-004 
2.422836e-004 
2.416278e-004 
2.410892e-004 
2.406690e-004 
2.403677e-004 
2.401851e-004 
2.401204e-004 
2.401721e-004 
2.403378e-004 
2.406146e-004 
2.409988e-004 
2.414860e-004 
2.420711e-004 
2.427486e-004 
2.435121e-004 
2.443546e-004 
2.452688e-004 
2.462467e-004 
2.472798e-004 
2.483594e-004 
2.494761e-004 
2.506204e-004 
2.517827e-004 
2.529528e-004 
2.541206e-004 
2.552761e-004 
2.564089e-004 
2.575090e-004 
2.585663e-004 
2.595709e-004 
2.605134e-004 
2.613845e-004 
2.621750e-004 
2.628763e-004 
2.634799e-004 
2.639777e-004 
2.643615e-004 
2.646236e-004 
2.647560e-004 
2.647525e-004 
1.000000e+000 
1.000000e+000 
2.991331e-004 
2.998304e-004 
3.005673e-004 
3.013409e-004 
3.021475e-004 
3.029820e-004 
3.038387e-004 
3.047114e-004 
3.055940e-004 
3.064798e-004 
3.073626e-004 
3.082363e-004 
3.090949e-004 
3.099328e-004 
3.107449e-004 
3.115263e-004 
3.122727e-004 
3.129799e-004 
3.136444e-004 
3.142628e-004 
3.148324e-004 
3.153504e-004 
3.158146e-004 
3.162230e-004 
3.165737e-004 
3.168652e-004 
3.170960e-004 
3.172650e-004 
3.173709e-004 
3.174129e-004 
3.173900e-004 
3.173015e-004 
3.171466e-004 
3.169246e-004 
3.166351e-004 
3.162775e-004 
3.158514e-004 
3.153563e-004 
3.147921e-004 
3.141584e-004 
3.134552e-004 
3.126824e-004 
3.118402e-004 
3.109285e-004 
3.099480e-004 
3.088988e-004 
3.077819e-004 
3.065978e-004 
3.053477e-004 
3.040328e-004 
3.026544e-004 
3.012142e-004 
2.997142e-004 
2.981565e-004 
2.965435e-004 
2.948779e-004 
2.931627e-004 
2.914013e-004 
2.895971e-004 
2.877540e-004 
2.858762e-004 
2.839683e-004 
2.820348e-004 
2.800808e-004 
2.781117e-004 
2.761330e-004 
2.741504e-004 
2.721699e-004 
2.701977e-004 
2.682402e-004 
2.663039e-004 
2.643953e-004 
2.625210e-004 
2.606878e-004 
2.589023e-004 
2.571711e-004 
2.555007e-004 
2.538976e-004 
2.523679e-004 
2.509175e-004 
2.495521e-004 
2.482771e-004 
2.470974e-004 
2.460175e-004 
2.450416e-004 
2.441733e-004 
2.434155e-004 
2.427707e-004 
2.422409e-004 
2.418271e-004 
2.415300e-004 
2.413496e-004 
2.412848e-004 
2.413344e-004 
2.414960e-004 
2.417669e-004 
2.421433e-004 
2.426211e-004 
2.431954e-004 
2.438605e-004 
2.446104e-004 
2.454383e-004 
2.463369e-004 
2.472987e-004 
2.483153e-004 
2.493781e-004 
2.504784e-004 
2.516069e-004 
2.527541e-004 
2.539106e-004 
2.550665e-004 
2.562123e-004 
2.573382e-004 
2.584345e-004 
2.594919e-004 
2.605010e-004 
2.614529e-004 
2.623388e-004 
2.631502e-004 
2.638791e-004 
2.645178e-004 
2.650586e-004 
2.654945e-004 
2.658187e-004 
2.660249e-004 
2.661081e-004 
1.000000e+000 
1.000000e+000 
2.976590e-004 
2.984972e-004 
2.993552e-004 
3.002315e-004 
3.011237e-004 
3.020282e-004 
3.029410e-004 
3.038573e-004 
3.047723e-004 
3.056810e-004 
3.065782e-004 
3.074592e-004 
3.083190e-004 
3.091533e-004 
3.099578e-004 
3.107286e-004 
3.114620e-004 
3.121547e-004 
3.128038e-004 
3.134067e-004 
3.139608e-004 
3.144640e-004 
3.149146e-004 
3.153106e-004 
3.156508e-004 
3.159336e-004 
3.161580e-004 
3.163228e-004 
3.164270e-004 
3.164699e-004 
3.164506e-004 
3.163683e-004 
3.162224e-004 
3.160123e-004 
3.157374e-004 
3.153971e-004 
3.149910e-004 
3.145187e-004 
3.139798e-004 
3.133741e-004 
3.127012e-004 
3.119612e-004 
3.111539e-004 
3.102795e-004 
3.093381e-004 
3.083302e-004 
3.072562e-004 
3.061168e-004 
3.049128e-004 
3.036454e-004 
3.023158e-004 
3.009256e-004 
2.994763e-004 
2.979702e-004 
2.964094e-004 
2.947965e-004 
2.931343e-004 
2.914259e-004 
2.896748e-004 
2.878846e-004 
2.860595e-004 
2.842036e-004 
2.823215e-004 
2.804183e-004 
2.784989e-004 
2.765689e-004 
2.746338e-004 
2.726996e-004 
2.707722e-004 
2.688581e-004 
2.669634e-004 
2.650948e-004 
2.632588e-004 
2.614620e-004 
2.597110e-004 
2.580124e-004 
2.563726e-004 
2.547980e-004 
2.532948e-004 
2.518689e-004 
2.505259e-004 
2.492712e-004 
2.481098e-004 
2.470463e-004 
2.460847e-004 
2.452286e-004 
2.444812e-004 
2.438450e-004 
2.433218e-004 
2.429129e-004 
2.426190e-004 
2.424401e-004 
2.423753e-004 
2.424233e-004 
2.425819e-004 
2.428485e-004 
2.432194e-004 
2.436906e-004 
2.442572e-004 
2.449138e-004 
2.456545e-004 
2.464727e-004 
2.473613e-004 
2.483129e-004 
2.493193e-004 
2.503724e-004 
2.514635e-004 
2.525836e-004 
2.537238e-004 
2.548748e-004 
2.560272e-004 
2.571719e-004 
2.582994e-004 
2.594007e-004 
2.604669e-004 
2.614890e-004 
2.624587e-004 
2.633676e-004 
2.642080e-004 
2.649724e-004 
2.656534e-004 
2.662445e-004 
2.667394e-004 
2.671322e-004 
2.674179e-004 
2.675926e-004 
1.000000e+000 
1.000000e+000 
2.961643e-004 
2.971435e-004 
2.981244e-004 
2.991063e-004 
3.000880e-004 
3.010674e-004 
3.020416e-004 
3.030072e-004 
3.039608e-004 
3.048984e-004 
3.058164e-004 
3.067108e-004 
3.075780e-004 
3.084146e-004 
3.092172e-004 
3.099827e-004 
3.107083e-004 
3.113915e-004 
3.120299e-004 
3.126214e-004 
3.131641e-004 
3.136564e-004 
3.140967e-004 
3.144837e-004 
3.148162e-004 
3.150932e-004 
3.153135e-004 
3.154765e-004 
3.155812e-004 
3.156269e-004 
3.156128e-004 
3.155384e-004 
3.154030e-004 
3.152059e-004 
3.149466e-004 
3.146246e-004 
3.142394e-004 
3.137904e-004 
3.132774e-004 
3.126998e-004 
3.120575e-004 
3.113502e-004 
3.105777e-004 
3.097401e-004 
3.088375e-004 
3.078700e-004 
3.068380e-004 
3.057421e-004 
3.045831e-004 
3.033617e-004 
3.020792e-004 
3.007368e-004 
2.993362e-004 
2.978792e-004 
2.963680e-004 
2.948049e-004 
2.931925e-004 
2.915339e-004 
2.898323e-004 
2.880912e-004 
2.863145e-004 
2.845064e-004 
2.826714e-004 
2.808141e-004 
2.789397e-004 
2.770533e-004 
2.751606e-004 
2.732673e-004 
2.713793e-004 
2.695029e-004 
2.676444e-004 
2.658101e-004 
2.640066e-004 
2.622405e-004 
2.605183e-004 
2.588466e-004 
2.572319e-004 
2.556804e-004 
2.541984e-004 
2.527918e-004 
2.514663e-004 
2.502273e-004 
2.490798e-004 
2.480284e-004 
2.470773e-004 
2.462301e-004 
2.454900e-004 
2.448596e-004 
2.443408e-004 
2.439351e-004 
2.436431e-004 
2.434648e-004 
2.433996e-004 
2.434462e-004 
2.436027e-004 
2.438661e-004 
2.442333e-004 
2.447002e-004 
2.452621e-004 
2.459137e-004 
2.466491e-004 
2.474621e-004 
2.483456e-004 
2.492923e-004 
2.502945e-004 
2.513440e-004 
2.524325e-004 
2.535514e-004 
2.546918e-004 
2.558448e-004 
2.570015e-004 
2.581529e-004 
2.592902e-004 
2.604046e-004 
2.614875e-004 
2.625305e-004 
2.635258e-004 
2.644655e-004 
2.653422e-004 
2.661490e-004 
2.668793e-004 
2.675271e-004 
2.680867e-004 
2.685534e-004 
2.689229e-004 
2.691922e-004 
1.000000e+000 
1.000000e+000 
2.946683e-004 
2.957877e-004 
2.968921e-004 
2.979815e-004 
2.990557e-004 
3.001135e-004 
3.011533e-004 
3.021730e-004 
3.031700e-004 
3.041419e-004 
3.050858e-004 
3.059990e-004 
3.068789e-004 
3.077229e-004 
3.085286e-004 
3.092938e-004 
3.100164e-004 
3.106945e-004 
3.113265e-004 
3.119107e-004 
3.124458e-004 
3.129307e-004 
3.133642e-004 
3.137452e-004 
3.140731e-004 
3.143468e-004 
3.145657e-004 
3.147292e-004 
3.148364e-004 
3.148869e-004 
3.148799e-004 
3.148150e-004 
3.146914e-004 
3.145087e-004 
3.142663e-004 
3.139635e-004 
3.136000e-004 
3.131751e-004 
3.126884e-004 
3.121395e-004 
3.115279e-004 
3.108534e-004 
3.101157e-004 
3.093147e-004 
3.084503e-004 
3.075227e-004 
3.065320e-004 
3.054786e-004 
3.043632e-004 
3.031865e-004 
3.019494e-004 
3.006531e-004 
2.992991e-004 
2.978890e-004 
2.964248e-004 
2.949087e-004 
2.933433e-004 
2.917312e-004 
2.900756e-004 
2.883800e-004 
2.866480e-004 
2.848837e-004 
2.830913e-004 
2.812756e-004 
2.794414e-004 
2.775939e-004 
2.757385e-004 
2.738810e-004 
2.720271e-004 
2.701831e-004 
2.683552e-004 
2.665498e-004 
2.647733e-004 
2.630323e-004 
2.613334e-004 
2.596831e-004 
2.580879e-004 
2.565542e-004 
2.550881e-004 
2.536958e-004 
2.523829e-004 
2.511548e-004 
2.500167e-004 
2.489733e-004 
2.480288e-004 
2.471869e-004 
2.464509e-004 
2.458235e-004 
2.453067e-004 
2.449021e-004 
2.446103e-004 
2.444316e-004 
2.443655e-004 
2.444106e-004 
2.445651e-004 
2.448265e-004 
2.451914e-004 
2.456559e-004 
2.462154e-004 
2.468649e-004 
2.475986e-004 
2.484102e-004 
2.492930e-004 
2.502398e-004 
2.512430e-004 
2.522947e-004 
2.533867e-004 
2.545107e-004 
2.556580e-004 
2.568201e-004 
2.579882e-004 
2.591538e-004 
2.603082e-004 
2.614430e-004 
2.625501e-004 
2.636215e-004 
2.646496e-004 
2.656270e-004 
2.665468e-004 
2.674026e-004 
2.681882e-004 
2.688982e-004 
2.695276e-004 
2.700723e-004 
2.705289e-004 
2.708950e-004 
1.000000e+000 
1.000000e+000 
2.931885e-004 
2.944470e-004 
2.956748e-004 
2.968726e-004 
2.980411e-004 
2.991800e-004 
3.002887e-004 
3.013660e-004 
3.024106e-004 
3.034209e-004 