# vtk DataFile Version 2.0
2D-ADE data file 
ASCII
DATASET RECTILINEAR_GRID
DIMENSIONS 128 128 1
X_COORDINATES 128 int
0 1 2 3 4 5 6 7 8 9 10 11 12 13 14 15 16 17 18 19 20 21 22 23 24 25 26 27 28 29 30 31 32 33 34 35 36 37 38 39 40 41 42 43 44 45 46 47 48 49 50 51 52 53 54 55 56 57 58 59 60 61 62 63 64 65 66 67 68 69 70 71 72 73 74 75 76 77 78 79 80 81 82 83 84 85 86 87 88 89 90 91 92 93 94 95 96 97 98 99 100 101 102 103 104 105 106 107 108 109 110 111 112 113 114 115 116 117 118 119 120 121 122 123 124 125 126 127 
Y_COORDINATES 128 int
0 1 2 3 4 5 6 7 8 9 10 11 12 13 14 15 16 17 18 19 20 21 22 23 24 25 26 27 28 29 30 31 32 33 34 35 36 37 38 39 40 41 42 43 44 45 46 47 48 49 50 51 52 53 54 55 56 57 58 59 60 61 62 63 64 65 66 67 68 69 70 71 72 73 74 75 76 77 78 79 80 81 82 83 84 85 86 87 88 89 90 91 92 93 94 95 96 97 98 99 100 101 102 103 104 105 106 107 108 109 110 111 112 113 114 115 116 117 118 119 120 121 122 123 124 125 126 127 
Z_COORDINATES 1 int
0
POINT_DATA 16384 
SCALARS density double 1
LOOKUP_TABLE default
1.000000e+000 
1.000000e+000 
1.000000e+000 
1.000000e+000 
1.000000e+000 
1.000000e+000 
1.000000e+000 
1.000000e+000 
1.000000e+000 
1.000000e+000 
1.000000e+000 
1.000000e+000 
1.000000e+000 
1.000000e+000 
1.000000e+000 
1.000000e+000 
1.000000e+000 
1.000000e+000 
1.000000e+000 
1.000000e+000 
1.000000e+000 
1.000000e+000 
1.000000e+000 
1.000000e+000 
1.000000e+000 
1.000000e+000 
1.000000e+000 
1.000000e+000 
1.000000e+000 
1.000000e+000 
1.000000e+000 
1.000000e+000 
1.000000e+000 
1.000000e+000 
1.000000e+000 
1.000000e+000 
1.000000e+000 
1.000000e+000 
1.000000e+000 
1.000000e+000 
1.000000e+000 
1.000000e+000 
1.000000e+000 
1.000000e+000 
1.000000e+000 
1.000000e+000 
1.000000e+000 
1.000000e+000 
1.000000e+000 
1.000000e+000 
1.000000e+000 
1.000000e+000 
1.000000e+000 
1.000000e+000 
1.000000e+000 
1.000000e+000 
1.000000e+000 
1.000000e+000 
1.000000e+000 
1.000000e+000 
1.000000e+000 
1.000000e+000 
1.000000e+000 
1.000000e+000 
1.000000e+000 
1.000000e+000 
1.000000e+000 
1.000000e+000 
1.000000e+000 
1.000000e+000 
1.000000e+000 
1.000000e+000 
1.000000e+000 
1.000000e+000 
1.000000e+000 
1.000000e+000 
1.000000e+000 
1.000000e+000 
1.000000e+000 
1.000000e+000 
1.000000e+000 
1.000000e+000 
1.000000e+000 
1.000000e+000 
1.000000e+000 
1.000000e+000 
1.000000e+000 
1.000000e+000 
1.000000e+000 
1.000000e+000 
1.000000e+000 
1.000000e+000 
1.000000e+000 
1.000000e+000 
1.000000e+000 
1.000000e+000 
1.000000e+000 
1.000000e+000 
1.000000e+000 
1.000000e+000 
1.000000e+000 
1.000000e+000 
1.000000e+000 
1.000000e+000 
1.000000e+000 
1.000000e+000 
1.000000e+000 
1.000000e+000 
1.000000e+000 
1.000000e+000 
1.000000e+000 
1.000000e+000 
1.000000e+000 
1.000000e+000 
1.000000e+000 
1.000000e+000 
1.000000e+000 
1.000000e+000 
1.000000e+000 
1.000000e+000 
1.000000e+000 
1.000000e+000 
1.000000e+000 
1.000000e+000 
1.000000e+000 
1.000000e+000 
1.000000e+000 
1.000000e+000 
1.000000e+000 
3.074236e-004 
3.073348e-004 
3.074194e-004 
3.077487e-004 
3.083365e-004 
3.091417e-004 
3.101227e-004 
3.112431e-004 
3.124699e-004 
3.137729e-004 
3.151253e-004 
3.165039e-004 
3.178884e-004 
3.192612e-004 
3.206071e-004 
3.219132e-004 
3.231682e-004 
3.243627e-004 
3.254888e-004 
3.265397e-004 
3.275099e-004 
3.283945e-004 
3.291899e-004 
3.298928e-004 
3.305007e-004 
3.310115e-004 
3.314237e-004 
3.317359e-004 
3.319472e-004 
3.320568e-004 
3.320641e-004 
3.319687e-004 
3.317704e-004 
3.314689e-004 
3.310642e-004 
3.305563e-004 
3.299452e-004 
3.292312e-004 
3.284143e-004 
3.274950e-004 
3.264737e-004 
3.253509e-004 
3.241272e-004 
3.228035e-004 
3.213807e-004 
3.198600e-004 
3.182428e-004 
3.165306e-004 
3.147253e-004 
3.128289e-004 
3.108439e-004 
3.087729e-004 
3.066191e-004 
3.043856e-004 
3.020764e-004 
2.996954e-004 
2.972471e-004 
2.947364e-004 
2.921686e-004 
2.895492e-004 
2.868842e-004 
2.841802e-004 
2.814438e-004 
2.786822e-004 
2.759029e-004 
2.731136e-004 
2.703226e-004 
2.675381e-004 
2.647688e-004 
2.620234e-004 
2.593111e-004 
2.566408e-004 
2.540218e-004 
2.514632e-004 
2.489742e-004 
2.465640e-004 
2.442415e-004 
2.420154e-004 
2.398943e-004 
2.378863e-004 
2.359994e-004 
2.342408e-004 
2.326175e-004 
2.311359e-004 
2.298017e-004 
2.286199e-004 
2.275951e-004 
2.267308e-004 
2.260299e-004 
2.254943e-004 
2.251253e-004 
2.249230e-004 
2.248868e-004 
2.250151e-004 
2.253052e-004 
2.257536e-004 
2.263558e-004 
2.271064e-004 
2.279988e-004 
2.290258e-004 
2.301789e-004 
2.314490e-004 
2.328259e-004 
2.342986e-004 
2.358553e-004 
2.374832e-004 
2.391690e-004 
2.408984e-004 
2.426564e-004 
2.444273e-004 
2.461945e-004 
2.479411e-004 
2.496491e-004 
2.513001e-004 
2.528749e-004 
2.543538e-004 
2.557165e-004 
2.569423e-004 
2.580106e-004 
2.589010e-004 
2.595952e-004 
2.600771e-004 
2.603345e-004 
2.603699e-004 
2.602609e-004 
2.601088e-004 
1.000000e+000 
1.000000e+000 
3.075124e-004 
3.074235e-004 
3.075244e-004 
3.078458e-004 
3.083722e-004 
3.090865e-004 
3.099606e-004 
3.109647e-004 
3.120698e-004 
3.132494e-004 
3.144797e-004 
3.157392e-004 
3.170091e-004 
3.182727e-004 
3.195154e-004 
3.207247e-004 
3.218897e-004 
3.230010e-004 
3.240507e-004 
3.250318e-004 
3.259387e-004 
3.267666e-004 
3.275114e-004 
3.281698e-004 
3.287389e-004 
3.292166e-004 
3.296009e-004 
3.298905e-004 
3.300841e-004 
3.301808e-004 
3.301798e-004 
3.300806e-004 
3.298829e-004 
3.295862e-004 
3.291905e-004 
3.286957e-004 
3.281017e-004 
3.274087e-004 
3.266168e-004 
3.257264e-004 
3.247379e-004 
3.236517e-004 
3.224686e-004 
3.211893e-004 
3.198148e-004 
3.183462e-004 
3.167850e-004 
3.151326e-004 
3.133910e-004 
3.115621e-004 
3.096483e-004 
3.076523e-004 
3.055771e-004 
3.034259e-004 
3.012023e-004 
2.989104e-004 
2.965545e-004 
2.941392e-004 
2.916697e-004 
2.891513e-004 
2.865899e-004 
2.839917e-004 
2.813632e-004 
2.787112e-004 
2.760429e-004 
2.733657e-004 
2.706875e-004 
2.680163e-004 
2.653603e-004 
2.627278e-004 
2.601275e-004 
2.575681e-004 
2.550583e-004 
2.526068e-004 
2.502224e-004 
2.479136e-004 
2.456891e-004 
2.435571e-004 
2.415257e-004 
2.396026e-004 
2.377952e-004 
2.361105e-004 
2.345550e-004 
2.331347e-004 
2.318550e-004 
2.307206e-004 
2.297356e-004 
2.289034e-004 
2.282266e-004 
2.277070e-004 
2.273456e-004 
2.271424e-004 
2.270967e-004 
2.272069e-004 
2.274704e-004 
2.278837e-004 
2.284424e-004 
2.291411e-004 
2.299736e-004 
2.309327e-004 
2.320106e-004 
2.331982e-004 
2.344858e-004 
2.358628e-004 
2.373180e-004 
2.388392e-004 
2.404135e-004 
2.420273e-004 
2.436665e-004 
2.453160e-004 
2.469604e-004 
2.485834e-004 
2.501685e-004 
2.516982e-004 
2.531550e-004 
2.545209e-004 
2.557774e-004 
2.569065e-004 
2.578902e-004 
2.587117e-004 
2.593561e-004 
2.598126e-004 
2.600792e-004 
2.601671e-004 
2.601087e-004 
2.599566e-004 
1.000000e+000 
1.000000e+000 
3.074279e-004 
3.073224e-004 
3.074235e-004 
3.077320e-004 
3.082197e-004 
3.088743e-004 
3.096717e-004 
3.105872e-004 
3.115963e-004 
3.126762e-004 
3.138055e-004 
3.149647e-004 
3.161364e-004 
3.173051e-004 
3.184572e-004 
3.195806e-004 
3.206649e-004 
3.217009e-004 
3.226809e-004 
3.235981e-004 
3.244467e-004 
3.252219e-004 
3.259195e-004 
3.265361e-004 
3.270688e-004 
3.275151e-004 
3.278732e-004 
3.281413e-004 
3.283182e-004 
3.284027e-004 
3.283941e-004 
3.282916e-004 
3.280948e-004 
3.278031e-004 
3.274165e-004 
3.269347e-004 
3.263578e-004 
3.256856e-004 
3.249185e-004 
3.240566e-004 
3.231003e-004 
3.220501e-004 
3.209067e-004 
3.196709e-004 
3.183435e-004 
3.169257e-004 
3.154189e-004 
3.138245e-004 
3.121445e-004 
3.103807e-004 
3.085356e-004 
3.066116e-004 
3.046117e-004 
3.025391e-004 
3.003973e-004 
2.981902e-004 
2.959218e-004 
2.935969e-004 
2.912203e-004 
2.887973e-004 
2.863333e-004 
2.838345e-004 
2.813070e-004 
2.787574e-004 
2.761927e-004 
2.736200e-004 
2.710467e-004 
2.684806e-004 
2.659295e-004 
2.634014e-004 
2.609047e-004 
2.584475e-004 
2.560381e-004 
2.536851e-004 
2.513966e-004 
2.491810e-004 
2.470462e-004 
2.450003e-004 
2.430509e-004 
2.412053e-004 
2.394706e-004 
2.378534e-004 
2.363598e-004 
2.349955e-004 
2.337655e-004 
2.326744e-004 
2.317259e-004 
2.309232e-004 
2.302687e-004 
2.297641e-004 
2.294101e-004 
2.292067e-004 
2.291532e-004 
2.292479e-004 
2.294882e-004 
2.298706e-004 
2.303909e-004 
2.310439e-004 
2.318235e-004 
2.327229e-004 
2.337341e-004 
2.348488e-004 
2.360575e-004 
2.373502e-004 
2.387158e-004 
2.401429e-004 
2.416191e-004 
2.431315e-004 
2.446665e-004 
2.462101e-004 
2.477475e-004 
2.492636e-004 
2.507426e-004 
2.521686e-004 
2.535253e-004 
2.547962e-004 
2.559647e-004 
2.570145e-004 
2.579302e-004 
2.586975e-004 
2.593041e-004 
2.597412e-004 
2.600064e-004 
2.601093e-004 
2.600502e-004 
2.598470e-004 
1.000000e+000 
1.000000e+000 
3.070975e-004 
3.069997e-004 
3.071148e-004 
3.074247e-004 
3.078981e-004 
3.085185e-004 
3.092647e-004 
3.101167e-004 
3.110537e-004 
3.120555e-004 
3.131032e-004 
3.141795e-004 
3.152687e-004 
3.163563e-004 
3.174298e-004 
3.184779e-004 
3.194906e-004 
3.204592e-004 
3.213763e-004 
3.222353e-004 
3.230306e-004 
3.237572e-004 
3.244112e-004 
3.249891e-004 
3.254878e-004 
3.259049e-004 
3.262383e-004 
3.264864e-004 
3.266476e-004 
3.267209e-004 
3.267053e-004 
3.266001e-004 
3.264045e-004 
3.261182e-004 
3.257409e-004 
3.252722e-004 
3.247122e-004 
3.240608e-004 
3.233181e-004 
3.224844e-004 
3.215599e-004 
3.205451e-004 
3.194406e-004 
3.182473e-004 
3.169659e-004 
3.155975e-004 
3.141436e-004 
3.126055e-004 
3.109850e-004 
3.092840e-004 
3.075049e-004 
3.056501e-004 
3.037223e-004 
3.017248e-004 
2.996608e-004 
2.975342e-004 
2.953490e-004 
2.931096e-004 
2.908206e-004 
2.884873e-004 
2.861148e-004 
2.837091e-004 
2.812760e-004 
2.788221e-004 
2.763537e-004 
2.738780e-004 
2.714020e-004 
2.689331e-004 
2.664789e-004 
2.640471e-004 
2.616455e-004 
2.592822e-004 
2.569651e-004 
2.547021e-004 
2.525014e-004 
2.503708e-004 
2.483179e-004 
2.463505e-004 
2.444757e-004 
2.427006e-004 
2.410320e-004 
2.394760e-004 
2.380386e-004 
2.367252e-004 
2.355404e-004 
2.344887e-004 
2.335735e-004 
2.327979e-004 
2.321640e-004 
2.316733e-004 
2.313266e-004 
2.311238e-004 
2.310640e-004 
2.311456e-004 
2.313659e-004 
2.317217e-004 
2.322087e-004 
2.328218e-004 
2.335552e-004 
2.344023e-004 
2.353554e-004 
2.364064e-004 
2.375462e-004 
2.387651e-004 
2.400527e-004 
2.413978e-004 
2.427887e-004 
2.442131e-004 
2.456581e-004 
2.471104e-004 
2.485560e-004 
2.499807e-004 
2.513698e-004 
2.527085e-004 
2.539817e-004 
2.551743e-004 
2.562714e-004 
2.572582e-004 
2.581211e-004 
2.588472e-004 
2.594260e-004 
2.598498e-004 
2.601125e-004 
2.602137e-004 
2.601370e-004 
2.598797e-004 
1.000000e+000 
1.000000e+000 
3.065058e-004 
3.064698e-004 
3.066258e-004 
3.069536e-004 
3.074296e-004 
3.080354e-004 
3.087522e-004 
3.095622e-004 
3.104472e-004 
3.113898e-004 
3.123736e-004 
3.133831e-004 
3.144040e-004 
3.154234e-004 
3.164298e-004 
3.174126e-004 
3.183626e-004 
3.192716e-004 
3.201326e-004 
3.209393e-004 
3.216862e-004 
3.223687e-004 
3.229827e-004 
3.235249e-004 
3.239923e-004 
3.243824e-004 
3.246931e-004 
3.249227e-004 
3.250697e-004 
3.251328e-004 
3.251111e-004 
3.250038e-004 
3.248101e-004 
3.245295e-004 
3.241617e-004 
3.237064e-004 
3.231634e-004 
3.225327e-004 
3.218143e-004 
3.210083e-004 
3.201152e-004 
3.191352e-004 
3.180689e-004 
3.169171e-004 
3.156806e-004 
3.143604e-004 
3.129578e-004 
3.114742e-004 
3.099112e-004 
3.082708e-004 
3.065552e-004 
3.047667e-004 
3.029080e-004 
3.009821e-004 
2.989923e-004 
2.969422e-004 
2.948356e-004 
2.926770e-004 
2.904707e-004 
2.882216e-004 
2.859350e-004 
2.836164e-004 
2.812715e-004 
2.789065e-004 
2.765278e-004 
2.741420e-004 
2.717560e-004 
2.693768e-004 
2.670119e-004 
2.646685e-004 
2.623544e-004 
2.600770e-004 
2.578442e-004 
2.556636e-004 
2.535429e-004 
2.514896e-004 
2.495112e-004 
2.476149e-004 
2.458079e-004 
2.440967e-004 
2.424878e-004 
2.409874e-004 
2.396009e-004 
2.383334e-004 
2.371897e-004 
2.361737e-004 
2.352888e-004 
2.345378e-004 
2.339229e-004 
2.334453e-004 
2.331058e-004 
2.329042e-004 
2.328396e-004 
2.329103e-004 
2.331138e-004 
2.334468e-004 
2.339051e-004 
2.344840e-004 
2.351776e-004 
2.359794e-004 
2.368823e-004 
2.378782e-004 
2.389585e-004 
2.401138e-004 
2.413340e-004 
2.426085e-004 
2.439262e-004 
2.452752e-004 
2.466433e-004 
2.480178e-004 
2.493857e-004 
2.507335e-004 
2.520475e-004 
2.533139e-004 
2.545188e-004 
2.556481e-004 
2.566884e-004 
2.576263e-004 
2.584492e-004 
2.591457e-004 
2.597053e-004 
2.601198e-004 
2.603803e-004 
2.604797e-004 
2.604007e-004 
2.601309e-004 
1.000000e+000 
1.000000e+000 
3.056916e-004 
3.057480e-004 
3.059672e-004 
3.063343e-004 
3.068313e-004 
3.074410e-004 
3.081468e-004 
3.089330e-004 
3.097838e-004 
3.106843e-004 
3.116199e-004 
3.125770e-004 
3.135429e-004 
3.145061e-004 
3.154561e-004 
3.163832e-004 
3.172790e-004 
3.181360e-004 
3.189475e-004 
3.197076e-004 
3.204112e-004 
3.210539e-004 
3.216318e-004 
3.221416e-004 
3.225805e-004 
3.229460e-004 
3.232360e-004 
3.234489e-004 
3.235830e-004 
3.236372e-004 
3.236104e-004 
3.235018e-004 
3.233107e-004 
3.230364e-004 
3.226785e-004 
3.222368e-004 
3.217109e-004 
3.211009e-004 
3.204066e-004 
3.196282e-004 
3.187660e-004 
3.178202e-004 
3.167914e-004 
3.156803e-004 
3.144876e-004 
3.132143e-004 
3.118615e-004 
3.104307e-004 
3.089234e-004 
3.073414e-004 
3.056868e-004 
3.039618e-004 
3.021691e-004 
3.003116e-004 
2.983923e-004 
2.964148e-004 
2.943827e-004 
2.923003e-004 
2.901718e-004 
2.880019e-004 
2.857956e-004 
2.835584e-004 
2.812957e-004 
2.790134e-004 
2.767177e-004 
2.744151e-004 
2.721121e-004 
2.698156e-004 
2.675326e-004 
2.652704e-004 
2.630361e-004 
2.608373e-004 
2.586812e-004 
2.565754e-004 
2.545273e-004 
2.525441e-004 
2.506331e-004 
2.488011e-004 
2.470551e-004 
2.454016e-004 
2.438466e-004 
2.423960e-004 
2.410553e-004 
2.398293e-004 
2.387225e-004 
2.377387e-004 
2.368812e-004 
2.361527e-004 
2.355551e-004 
2.350898e-004 
2.347572e-004 
2.345574e-004 
2.344892e-004 
2.345512e-004 
2.347407e-004 
2.350545e-004 
2.354887e-004 
2.360384e-004 
2.366980e-004 
2.374614e-004 
2.383214e-004 
2.392704e-004 
2.402999e-004 
2.414010e-004 
2.425640e-004 
2.437787e-004 
2.450344e-004 
2.463198e-004 
2.476233e-004 
2.489329e-004 
2.502361e-004 
2.515205e-004 
2.527731e-004 
2.539811e-004 
2.551314e-004 
2.562113e-004 
2.572082e-004 
2.581099e-004 
2.589048e-004 
2.595820e-004 
2.601315e-004 
2.605440e-004 
2.608093e-004 
2.609170e-004 
2.608520e-004 
2.606020e-004 
1.000000e+000 
1.000000e+000 
3.046938e-004 
3.048605e-004 
3.051615e-004 
3.055865e-004 
3.061208e-004 
3.067504e-004 
3.074612e-004 
3.082394e-004 
3.090717e-004 
3.099448e-004 
3.108462e-004 
3.117640e-004 
3.126870e-004 
3.136050e-004 
3.145086e-004 
3.153891e-004 
3.162389e-004 
3.170510e-004 
3.178194e-004 
3.185387e-004 
3.192040e-004 
3.198113e-004 
3.203569e-004 
3.208376e-004 
3.212509e-004 
3.215943e-004 
3.218658e-004 
3.220638e-004 
3.221867e-004 
3.222333e-004 
3.222026e-004 
3.220937e-004 
3.219059e-004 
3.216385e-004 
3.212911e-004 
3.208632e-004 
3.203547e-004 
3.197654e-004 
3.190952e-004 
3.183442e-004 
3.175125e-004 
3.166005e-004 
3.156086e-004 
3.145373e-004 
3.133874e-004 
3.121597e-004 
3.108554e-004 
3.094758e-004 
3.080222e-004 
3.064965e-004 
3.049005e-004 
3.032365e-004 
3.015070e-004 
2.997146e-004 
2.978623e-004 
2.959536e-004 
2.939920e-004 
2.919814e-004 
2.899260e-004 
2.878303e-004 
2.856992e-004 
2.835378e-004 
2.813515e-004 
2.791459e-004 
2.769271e-004 
2.747011e-004 
2.724745e-004 
2.702538e-004 
2.680459e-004 
2.658577e-004 
2.636962e-004 
2.615687e-004 
2.594823e-004 
2.574442e-004 
2.554616e-004 
2.535416e-004 
2.516911e-004 
2.499170e-004 
2.482258e-004 
2.466238e-004 
2.451170e-004 
2.437111e-004 
2.424112e-004 
2.412222e-004 
2.401484e-004 
2.391934e-004 
2.383605e-004 
2.376522e-004 
2.370704e-004 
2.366164e-004 
2.362906e-004 
2.360929e-004 
2.360224e-004 
2.360774e-004 
2.362555e-004 
2.365536e-004 
2.369676e-004 
2.374929e-004 
2.381242e-004 
2.388553e-004 
2.396793e-004 
2.405890e-004 
2.415760e-004 
2.426318e-004 
2.437470e-004 
2.449118e-004 
2.461160e-004 
2.473488e-004 
2.485992e-004 
2.498557e-004 
2.511066e-004 
2.523400e-004 
2.535439e-004 
2.547061e-004 
2.558147e-004 
2.568576e-004 
2.578234e-004 
2.587006e-004 
2.594784e-004 
2.601465e-004 
2.606950e-004 
2.611141e-004 
2.613939e-004 
2.615234e-004 
2.614890e-004 
2.612807e-004 
1.000000e+000 
1.000000e+000 
3.035464e-004 
3.038352e-004 
3.042322e-004 
3.047292e-004 
3.053151e-004 
3.059787e-004 
3.067084e-004 
3.074925e-004 
3.083196e-004 
3.091783e-004 
3.100580e-004 
3.109482e-004 
3.118393e-004 
3.127222e-004 
3.135886e-004 
3.144309e-004 
3.152423e-004 
3.160165e-004 
3.167480e-004 
3.174319e-004 
3.180638e-004 
3.186400e-004 
3.191572e-004 
3.196123e-004 
3.200029e-004 
3.203268e-004 
3.205821e-004 
3.207671e-004 
3.208805e-004 
3.209211e-004 
3.208877e-004 
3.207796e-004 
3.205960e-004 
3.203363e-004 
3.199999e-004 
3.195864e-004 
3.190956e-004 
3.185272e-004 
3.178811e-004 
3.171573e-004 
3.163559e-004 
3.154772e-004 
3.145215e-004 
3.134893e-004 
3.123812e-004 
3.111981e-004 
3.099409e-004 
3.086108e-004 
3.072092e-004 
3.057377e-004 
3.041981e-004 
3.025925e-004 
3.009233e-004 
2.991930e-004 
2.974044e-004 
2.955609e-004 
2.936658e-004 
2.917228e-004 
2.897361e-004 
2.877099e-004 
2.856490e-004 
2.835581e-004 
2.814427e-004 
2.793080e-004 
2.771600e-004 
2.750046e-004 
2.728480e-004 
2.706967e-004 
2.685571e-004 
2.664362e-004 
2.643408e-004 
2.622777e-004 
2.602541e-004 
2.582769e-004 
2.563531e-004 
2.544897e-004 
2.526933e-004 
2.509707e-004 
2.493282e-004 
2.477720e-004 
2.463079e-004 
2.449415e-004 
2.436778e-004 
2.425216e-004 
2.414769e-004 
2.405475e-004 
2.397363e-004 
2.390460e-004 
2.384784e-004 
2.380346e-004 
2.377153e-004 
2.375201e-004 
2.374482e-004 
2.374979e-004 
2.376669e-004 
2.379522e-004 
2.383497e-004 
2.388551e-004 
2.394631e-004 
2.401676e-004 
2.409621e-004 
2.418394e-004 
2.427916e-004 
2.438102e-004 
2.448864e-004 
2.460108e-004 
2.471733e-004 
2.483639e-004 
2.495718e-004 
2.507862e-004 
2.519961e-004 
2.531901e-004 
2.543569e-004 
2.554852e-004 
2.565637e-004 
2.575814e-004 
2.585273e-004 
2.593908e-004 
2.601619e-004 
2.608307e-004 
2.613876e-004 
2.618232e-004 
2.621277e-004 
2.622914e-004 
2.623022e-004 
2.621515e-004 
1.000000e+000 
1.000000e+000 
3.022803e-004 
3.026998e-004 
3.032025e-004 
3.037825e-004 
3.044316e-004 
3.051412e-004 
3.059016e-004 
3.067034e-004 
3.075369e-004 
3.083927e-004 
3.092615e-004 
3.101346e-004 
3.110035e-004 
3.118605e-004 
3.126983e-004 
3.135102e-004 
3.142903e-004 
3.150331e-004 
3.157335e-004 
3.163874e-004 
3.169908e-004 
3.175402e-004 
3.180327e-004 
3.184656e-004 
3.188366e-004 
3.191436e-004 
3.193850e-004 
3.195593e-004 
3.196650e-004 
3.197010e-004 
3.196664e-004 
3.195603e-004 
3.193820e-004 
3.191307e-004 
3.188060e-004 
3.184074e-004 
3.179346e-004 
3.173874e-004 
3.167655e-004 
3.160689e-004 
3.152976e-004 
3.144519e-004 
3.135318e-004 
3.125380e-004 
3.114709e-004 
3.103312e-004 
3.091198e-004 
3.078378e-004 
3.064865e-004 
3.050672e-004 
3.035819e-004 
3.020323e-004 
3.004206e-004 
2.987494e-004 
2.970214e-004 
2.952396e-004 
2.934072e-004 
2.915279e-004 
2.896055e-004 
2.876443e-004 
2.856487e-004 
2.836234e-004 
2.815735e-004 
2.795043e-004 
2.774214e-004 
2.753306e-004 
2.732380e-004 
2.711497e-004 
2.690723e-004 
2.670122e-004 
2.649762e-004 
2.629711e-004 
2.610037e-004 
2.590809e-004 
2.572095e-004 
2.553962e-004 
2.536477e-004 
2.519706e-004 
2.503710e-004 
2.488550e-004 
2.474284e-004 
2.460965e-004 
2.448645e-004 
2.437367e-004 
2.427175e-004 
2.418103e-004 
2.410182e-004 
2.403437e-004 
2.397885e-004 
2.393539e-004 
2.390404e-004 
2.388478e-004 
2.387752e-004 
2.388211e-004 
2.389831e-004 
2.392582e-004 
2.396427e-004 
2.401321e-004 
2.407213e-004 
2.414046e-004 
2.421755e-004 
2.430269e-004 
2.439513e-004 
2.449405e-004 
2.459859e-004 
2.470783e-004 
2.482084e-004 
2.493661e-004 
2.505415e-004 
2.517242e-004 
2.529035e-004 
2.540688e-004 
2.552094e-004 
2.563147e-004 
2.573740e-004 
2.583770e-004 
2.593135e-004 
2.601736e-004 
2.609477e-004 
2.616267e-004 
2.622013e-004 
2.626629e-004 
2.630023e-004 
2.632108e-004 
2.632785e-004 
2.631982e-004 
1.000000e+000 
1.000000e+000 
3.009243e-004 
3.014795e-004 
3.020949e-004 
3.027662e-004 
3.034878e-004 
3.042529e-004 
3.050540e-004 
3.058836e-004 
3.067336e-004 
3.075963e-004 
3.084639e-004 
3.093290e-004 
3.101845e-004 
3.110238e-004 
3.118407e-004 
3.126295e-004 
3.133850e-004 
3.141024e-004 
3.147775e-004 
3.154064e-004 
3.159857e-004 
3.165126e-004 
3.169842e-004 
3.173982e-004 
3.177526e-004 
3.180456e-004 
3.182755e-004 
3.184411e-004 
3.185410e-004 
3.185743e-004 
3.185399e-004 
3.184371e-004 
3.182650e-004 
3.180232e-004 
3.177110e-004 
3.173279e-004 
3.168737e-004 
3.163479e-004 
3.157504e-004 
3.150810e-004 
3.143398e-004 
3.135266e-004 
3.126419e-004 
3.116858e-004 
3.106588e-004 
3.095615e-004 
3.083947e-004 
3.071594e-004 
3.058567e-004 
3.044879e-004 
3.030546e-004 
3.015587e-004 
3.000021e-004 
2.983873e-004 
2.967167e-004 
2.949932e-004 
2.932200e-004 
2.914005e-004 
2.895384e-004 
2.876378e-004 
2.857028e-004 
2.837383e-004 
2.817489e-004 
2.797399e-004 
2.777166e-004 
2.756848e-004 
2.736502e-004 
2.716191e-004 
2.695976e-004 
2.675922e-004 
2.656095e-004 
2.636560e-004 
2.617386e-004 
2.598639e-004 
2.580386e-004 
2.562694e-004 
2.545628e-004 
2.529252e-004 
2.513629e-004 
2.498818e-004 
2.484875e-004 
2.471854e-004 
2.459804e-004 
2.448771e-004 
2.438796e-004 
2.429914e-004 
2.422155e-004 
2.415545e-004 
2.410100e-004 
2.405834e-004 
2.402750e-004 
2.400849e-004 
2.400122e-004 
2.400553e-004 
2.402120e-004 
2.404793e-004 
2.408536e-004 
2.413307e-004 
2.419054e-004 
2.425722e-004 
2.433247e-004 
2.441563e-004 
2.450594e-004 
2.460262e-004 
2.470483e-004 
2.481169e-004 
2.492229e-004 
2.503567e-004 
2.515088e-004 
2.526691e-004 
2.538276e-004 
2.549742e-004 
2.560986e-004 
2.571909e-004 
2.582411e-004 
2.592394e-004 
2.601762e-004 
2.610423e-004 
2.618287e-004 
2.625268e-004 
2.631281e-004 
2.636244e-004 
2.640078e-004 
2.642705e-004 
2.644045e-004 
2.644039e-004 
1.000000e+000 
1.000000e+000 
2.995040e-004 
3.001978e-004 
3.009305e-004 
3.016993e-004 
3.025004e-004 
3.033288e-004 
3.041790e-004 
3.050448e-004 
3.059199e-004 
3.067979e-004 
3.076726e-004 
3.085379e-004 
3.093878e-004 
3.102169e-004 
3.110199e-004 
3.117921e-004 
3.125291e-004 
3.132268e-004 
3.138817e-004 
3.144905e-004 
3.150503e-004 
3.155586e-004 
3.160130e-004 
3.164115e-004 
3.167523e-004 
3.170339e-004 
3.172549e-004 
3.174140e-004 
3.175101e-004 
3.175423e-004 
3.175097e-004 
3.174116e-004 
3.172471e-004 
3.170157e-004 
3.167169e-004 
3.163501e-004 
3.159150e-004 
3.154111e-004 
3.148382e-004 
3.141962e-004 
3.134848e-004 
3.127042e-004 
3.118543e-004 
3.109353e-004 
3.099478e-004 
3.088920e-004 
3.077688e-004 
3.065788e-004 
3.053232e-004 
3.040031e-004 
3.026199e-004 
3.011754e-004 
2.996715e-004 
2.981102e-004 
2.964941e-004 
2.948259e-004 
2.931084e-004 
2.913450e-004 
2.895393e-004 
2.876950e-004 
2.858164e-004 
2.839079e-004 
2.819742e-004 
2.800203e-004 
2.780514e-004 
2.760731e-004 
2.740911e-004 
2.721114e-004 
2.701400e-004 
2.681834e-004 
2.662479e-004 
2.643400e-004 
2.624664e-004 
2.606338e-004 
2.588486e-004 
2.571176e-004 
2.554471e-004 
2.538435e-004 
2.523129e-004 
2.508613e-004 
2.494943e-004 
2.482172e-004 
2.470350e-004 
2.459521e-004 
2.449726e-004 
2.441001e-004 
2.433376e-004 
2.426876e-004 
2.421519e-004 
2.417318e-004 
2.414278e-004 
2.412399e-004 
2.411673e-004 
2.412084e-004 
2.413612e-004 
2.416227e-004 
2.419895e-004 
2.424573e-004 
2.430212e-004 
2.436759e-004 
2.444150e-004 
2.452321e-004 
2.461199e-004 
2.470707e-004 
2.480765e-004 
2.491286e-004 
2.502184e-004 
2.513365e-004 
2.524738e-004 
2.536206e-004 
2.547673e-004 
2.559043e-004 
2.570219e-004 
2.581106e-004 
2.591609e-004 
2.601636e-004 
2.611098e-004 
2.619907e-004 
2.627980e-004 
2.635236e-004 
2.641597e-004 
2.646989e-004 
2.651342e-004 
2.654588e-004 
2.656663e-004 
2.657521e-004 
1.000000e+000 
1.000000e+000 
2.980428e-004 
2.988763e-004 
2.997293e-004 
3.005999e-004 
3.014859e-004 
3.023839e-004 
3.032896e-004 
3.041986e-004 
3.051060e-004 
3.060067e-004 
3.068957e-004 
3.077682e-004 
3.086194e-004 
3.094448e-004 
3.102403e-004 
3.110019e-004 
3.117260e-004 
3.124094e-004 
3.130490e-004 
3.136423e-004 
3.141868e-004 
3.146803e-004 
3.151211e-004 
3.155073e-004 
3.158376e-004 
3.161106e-004 
3.163251e-004 
3.164800e-004 
3.165743e-004 
3.166073e-004 
3.165782e-004 
3.164861e-004 
3.163305e-004 
3.161107e-004 
3.158262e-004 
3.154765e-004 
3.150611e-004 
3.145797e-004 
3.140318e-004 
3.134173e-004 
3.127359e-004 
3.119875e-004 
3.111722e-004 
3.102900e-004 
3.093412e-004 
3.083262e-004 
3.072454e-004 
3.060996e-004 
3.048896e-004 
3.036165e-004 
3.022817e-004 
3.008866e-004 
2.994329e-004 
2.979227e-004 
2.963583e-004 
2.947422e-004 
2.930772e-004 
2.913664e-004 
2.896133e-004 
2.878215e-004 
2.859950e-004 
2.841381e-004 
2.822554e-004 
2.803517e-004 
2.784322e-004 
2.765023e-004 
2.745674e-004 
2.726336e-004 
2.707067e-004 
2.687931e-004 
2.668990e-004 
2.650309e-004 
2.631954e-004 
2.613989e-004 
2.596481e-004 
2.579494e-004 
2.563094e-004 
2.547342e-004 
2.532301e-004 
2.518029e-004 
2.504583e-004 
2.492015e-004 
2.480375e-004 
2.469709e-004 
2.460057e-004 
2.451455e-004 
2.443935e-004 
2.437520e-004 
2.432231e-004 
2.428080e-004 
2.425073e-004 
2.423210e-004 
2.422484e-004 
2.422881e-004 
2.424380e-004 
2.426954e-004 
2.430568e-004 
2.435181e-004 
2.440746e-004 
2.447209e-004 
2.454511e-004 
2.462586e-004 
2.471365e-004 
2.480773e-004 
2.490731e-004 
2.501156e-004 
2.511963e-004 
2.523063e-004 
2.534366e-004 
2.545780e-004 
2.557213e-004 
2.568572e-004 
2.579766e-004 
2.590703e-004 
2.601293e-004 
2.611450e-004 
2.621089e-004 
2.630129e-004 
2.638490e-004 
2.646099e-004 
2.652883e-004 
2.658776e-004 
2.663716e-004 
2.667645e-004 
2.670512e-004 
2.672280e-004 
1.000000e+000 
1.000000e+000 
2.965615e-004 
2.975350e-004 
2.985097e-004 
2.994851e-004 
3.004600e-004 
3.014322e-004 
3.023990e-004 
3.033569e-004 
3.043025e-004 
3.052319e-004 
3.061415e-004 
3.070273e-004 
3.078858e-004 
3.087135e-004 
3.095071e-004 
3.102635e-004 
3.109799e-004 
3.116538e-004 
3.122827e-004 
3.128647e-004 
3.133979e-004 
3.138805e-004 
3.143111e-004 
3.146883e-004 
3.150109e-004 
3.152780e-004 
3.154884e-004 
3.156414e-004 
3.157361e-004 
3.157718e-004 
3.157477e-004 
3.156633e-004 
3.155179e-004 
3.153109e-004 
3.150418e-004 
3.147101e-004 
3.143152e-004 
3.138568e-004 
3.133344e-004 
3.127477e-004 
3.120964e-004 
3.113803e-004 
3.105994e-004 
3.097536e-004 
3.088430e-004 
3.078679e-004 
3.068287e-004 
3.057259e-004 
3.045603e-004 
3.033327e-004 
3.020444e-004 
3.006967e-004 
2.992911e-004 
2.978296e-004 
2.963142e-004 
2.947474e-004 
2.931317e-004 
2.914702e-004 
2.897661e-004 
2.880229e-004 
2.862445e-004 
2.844350e-004 
2.825989e-004 
2.807408e-004 
2.788658e-004 
2.769792e-004 
2.750864e-004 
2.731931e-004 
2.713054e-004 
2.694292e-004 
2.675710e-004 
2.657370e-004 
2.639338e-004 
2.621679e-004 
2.604457e-004 
2.587739e-004 
2.571587e-004 
2.556066e-004 
2.541236e-004 
2.527157e-004 
2.513885e-004 
2.501474e-004 
2.489973e-004 
2.479428e-004 
2.469882e-004 
2.461369e-004 
2.453923e-004 
2.447568e-004 
2.442324e-004 
2.438204e-004 
2.435217e-004 
2.433362e-004 
2.432634e-004 
2.433018e-004 
2.434497e-004 
2.437041e-004 
2.440620e-004 
2.445191e-004 
2.450710e-004 
2.457124e-004 
2.464375e-004 
2.472399e-004 
2.481128e-004 
2.490489e-004 
2.500406e-004 
2.510797e-004 
2.521579e-004 
2.532666e-004 
2.543972e-004 
2.555408e-004 
2.566884e-004 
2.578312e-004 
2.589602e-004 
2.600669e-004 
2.611427e-004 
2.621794e-004 
2.631688e-004 
2.641033e-004 
2.649756e-004 
2.657788e-004 
2.665062e-004 
2.671520e-004 
2.677104e-004 
2.681768e-004 
2.685470e-004 
2.688180e-004 
1.000000e+000 
1.000000e+000 
2.950794e-004 
2.961919e-004 
2.972892e-004 
2.983712e-004 
2.994378e-004 
3.004878e-004 
3.015196e-004 
3.025311e-004 
3.035199e-004 
3.044833e-004 
3.054186e-004 
3.063231e-004 
3.071942e-004 
3.080292e-004 
3.088259e-004 
3.095820e-004 
3.102954e-004 
3.109642e-004 
3.115868e-004 
3.121615e-004 
3.126871e-004 
3.131623e-004 
3.135860e-004 
3.139573e-004 
3.142752e-004 
3.145390e-004 
3.147479e-004 
3.149012e-004 
3.149984e-004 
3.150386e-004 
3.150215e-004 
3.149463e-004 
3.148126e-004 
3.146197e-004 
3.143671e-004 
3.140543e-004 
3.136808e-004 
3.132461e-004 
3.127497e-004 
3.121912e-004 
3.115702e-004 
3.108865e-004 
3.101399e-004 
3.093302e-004 
3.084574e-004 
3.075216e-004 
3.065231e-004 
3.054623e-004 
3.043398e-004 
3.031564e-004 
3.019130e-004 
3.006108e-004 
2.992513e-004 
2.978362e-004 
2.963673e-004 
2.948470e-004 
2.932778e-004 
2.916623e-004 
2.900038e-004 
2.883056e-004 
2.865715e-004 
2.848053e-004 
2.830115e-004 
2.811946e-004 
2.793595e-004 
2.775114e-004 
2.756556e-004 
2.737979e-004 
2.719440e-004 
2.701000e-004 
2.682722e-004 
2.664669e-004 
2.646905e-004 
2.629495e-004 
2.612505e-004 
2.595999e-004 
2.580043e-004 
2.564699e-004 
2.550028e-004 
2.536091e-004 
2.522945e-004 
2.510644e-004 
2.499237e-004 
2.488773e-004 
2.479293e-004 
2.470834e-004 
2.463430e-004 
2.457106e-004 
2.451883e-004 
2.447776e-004 
2.444792e-004 
2.442935e-004 
2.442198e-004 
2.442569e-004 
2.444029e-004 
2.446554e-004 
2.450111e-004 
2.454660e-004 
2.460157e-004 
2.466551e-004 
2.473786e-004 
2.481798e-004 
2.490521e-004 
2.499884e-004 
2.509811e-004 
2.520225e-004 
2.531043e-004 
2.542183e-004 
2.553558e-004 
2.565085e-004 
2.576675e-004 
2.588244e-004 
2.599706e-004 
2.610977e-004 
2.621976e-004 
2.632625e-004 
2.642846e-004 
2.652567e-004 
2.661719e-004 
2.670238e-004 
2.678063e-004 
2.685140e-004 
2.691420e-004 
2.696860e-004 
2.701429e-004 
2.705102e-004 
1.000000e+000 
1.000000e+000 
2.936138e-004 
2.948641e-004 
2.960838e-004 
2.972733e-004 
2.984335e-004 
2.995639e-004 
3.006641e-004 
3.017328e-004 
3.027687e-004 
3.037703e-004 