# vtk DataFile Version 2.0
2D-ADE data file 
ASCII
DATASET RECTILINEAR_GRID
DIMENSIONS 128 128 1
X_COORDINATES 128 int
0 1 2 3 4 5 6 7 8 9 10 11 12 13 14 15 16 17 18 19 20 21 22 23 24 25 26 27 28 29 30 31 32 33 34 35 36 37 38 39 40 41 42 43 44 45 46 47 48 49 50 51 52 53 54 55 56 57 58 59 60 61 62 63 64 65 66 67 68 69 70 71 72 73 74 75 76 77 78 79 80 81 82 83 84 85 86 87 88 89 90 91 92 93 94 95 96 97 98 99 100 101 102 103 104 105 106 107 108 109 110 111 112 113 114 115 116 117 118 119 120 121 122 123 124 125 126 127 
Y_COORDINATES 128 int
0 1 2 3 4 5 6 7 8 9 10 11 12 13 14 15 16 17 18 19 20 21 22 23 24 25 26 27 28 29 30 31 32 33 34 35 36 37 38 39 40 41 42 43 44 45 46 47 48 49 50 51 52 53 54 55 56 57 58 59 60 61 62 63 64 65 66 67 68 69 70 71 72 73 74 75 76 77 78 79 80 81 82 83 84 85 86 87 88 89 90 91 92 93 94 95 96 97 98 99 100 101 102 103 104 105 106 107 108 109 110 111 112 113 114 115 116 117 118 119 120 121 122 123 124 125 126 127 
Z_COORDINATES 1 int
0
POINT_DATA 16384 
SCALARS density double 1
LOOKUP_TABLE default
1.000000e+000 
1.000000e+000 
1.000000e+000 
1.000000e+000 
1.000000e+000 
1.000000e+000 
1.000000e+000 
1.000000e+000 
1.000000e+000 
1.000000e+000 
1.000000e+000 
1.000000e+000 
1.000000e+000 
1.000000e+000 
1.000000e+000 
1.000000e+000 
1.000000e+000 
1.000000e+000 
1.000000e+000 
1.000000e+000 
1.000000e+000 
1.000000e+000 
1.000000e+000 
1.000000e+000 
1.000000e+000 
1.000000e+000 
1.000000e+000 
1.000000e+000 
1.000000e+000 
1.000000e+000 
1.000000e+000 
1.000000e+000 
1.000000e+000 
1.000000e+000 
1.000000e+000 
1.000000e+000 
1.000000e+000 
1.000000e+000 
1.000000e+000 
1.000000e+000 
1.000000e+000 
1.000000e+000 
1.000000e+000 
1.000000e+000 
1.000000e+000 
1.000000e+000 
1.000000e+000 
1.000000e+000 
1.000000e+000 
1.000000e+000 
1.000000e+000 
1.000000e+000 
1.000000e+000 
1.000000e+000 
1.000000e+000 
1.000000e+000 
1.000000e+000 
1.000000e+000 
1.000000e+000 
1.000000e+000 
1.000000e+000 
1.000000e+000 
1.000000e+000 
1.000000e+000 
1.000000e+000 
1.000000e+000 
1.000000e+000 
1.000000e+000 
1.000000e+000 
1.000000e+000 
1.000000e+000 
1.000000e+000 
1.000000e+000 
1.000000e+000 
1.000000e+000 
1.000000e+000 
1.000000e+000 
1.000000e+000 
1.000000e+000 
1.000000e+000 
1.000000e+000 
1.000000e+000 
1.000000e+000 
1.000000e+000 
1.000000e+000 
1.000000e+000 
1.000000e+000 
1.000000e+000 
1.000000e+000 
1.000000e+000 
1.000000e+000 
1.000000e+000 
1.000000e+000 
1.000000e+000 
1.000000e+000 
1.000000e+000 
1.000000e+000 
1.000000e+000 
1.000000e+000 
1.000000e+000 
1.000000e+000 
1.000000e+000 
1.000000e+000 
1.000000e+000 
1.000000e+000 
1.000000e+000 
1.000000e+000 
1.000000e+000 
1.000000e+000 
1.000000e+000 
1.000000e+000 
1.000000e+000 
1.000000e+000 
1.000000e+000 
1.000000e+000 
1.000000e+000 
1.000000e+000 
1.000000e+000 
1.000000e+000 
1.000000e+000 
1.000000e+000 
1.000000e+000 
1.000000e+000 
1.000000e+000 
1.000000e+000 
1.000000e+000 
1.000000e+000 
1.000000e+000 
1.000000e+000 
2.666843e-004 
2.646694e-004 
2.633824e-004 
2.630824e-004 
2.630111e-004 
2.629749e-004 
2.629629e-004 
2.629466e-004 
2.628876e-004 
2.627600e-004 
2.625472e-004 
2.622366e-004 
2.618184e-004 
2.612860e-004 
2.606351e-004 
2.598632e-004 
2.589698e-004 
2.579557e-004 
2.568229e-004 
2.555748e-004 
2.542158e-004 
2.527510e-004 
2.511865e-004 
2.495292e-004 
2.477866e-004 
2.459667e-004 
2.440779e-004 
2.421291e-004 
2.401294e-004 
2.380882e-004 
2.360149e-004 
2.339188e-004 
2.318093e-004 
2.296957e-004 
2.275868e-004 
2.254914e-004 
2.234177e-004 
2.213735e-004 
2.193661e-004 
2.174023e-004 
2.154882e-004 
2.136292e-004 
2.118301e-004 
2.100949e-004 
2.084269e-004 
2.068284e-004 
2.053010e-004 
2.038457e-004 
2.024625e-004 
2.011505e-004 
1.999081e-004 
1.987331e-004 
1.976221e-004 
1.965716e-004 
1.955768e-004 
1.946327e-004 
1.937336e-004 
1.928731e-004 
1.920445e-004 
1.912407e-004 
1.904542e-004 
1.896773e-004 
1.889019e-004 
1.881200e-004 
1.873236e-004 
1.865046e-004 
1.856551e-004 
1.847674e-004 
1.838342e-004 
1.828484e-004 
1.818035e-004 
1.806935e-004 
1.795130e-004 
1.782573e-004 
1.769223e-004 
1.755049e-004 
1.740026e-004 
1.724141e-004 
1.707387e-004 
1.689768e-004 
1.671298e-004 
1.651998e-004 
1.631901e-004 
1.611049e-004 
1.589493e-004 
1.567291e-004 
1.544513e-004 
1.521234e-004 
1.497538e-004 
1.473513e-004 
1.449255e-004 
1.424865e-004 
1.400448e-004 
1.376110e-004 
1.351961e-004 
1.328112e-004 
1.304674e-004 
1.281757e-004 
1.259467e-004 
1.237909e-004 
1.217182e-004 
1.197383e-004 
1.178597e-004 
1.160907e-004 
1.144384e-004 
1.129091e-004 
1.115082e-004 
1.102398e-004 
1.091069e-004 
1.081112e-004 
1.072530e-004 
1.065310e-004 
1.059423e-004 
1.054823e-004 
1.051441e-004 
1.049181e-004 
1.047921e-004 
1.047504e-004 
1.047737e-004 
1.048325e-004 
1.048845e-004 
1.048986e-004 
1.048646e-004 
1.045720e-004 
1.031915e-004 
1.010104e-004 
1.000000e+000 
1.000000e+000 
2.644862e-004 
2.637492e-004 
2.631147e-004 
2.627358e-004 
2.625136e-004 
2.624021e-004 
2.623212e-004 
2.622258e-004 
2.620901e-004 
2.618940e-004 
2.616200e-004 
2.612553e-004 
2.607902e-004 
2.602181e-004 
2.595342e-004 
2.587358e-004 
2.578220e-004 
2.567933e-004 
2.556513e-004 
2.543990e-004 
2.530404e-004 
2.515803e-004 
2.500245e-004 
2.483796e-004 
2.466525e-004 
2.448511e-004 
2.429835e-004 
2.410582e-004 
2.390841e-004 
2.370702e-004 
2.350257e-004 
2.329597e-004 
2.308815e-004 
2.287998e-004 
2.267236e-004 
2.246613e-004 
2.226210e-004 
2.206103e-004 
2.186364e-004 
2.167060e-004 
2.148250e-004 
2.129987e-004 
2.112319e-004 
2.095283e-004 
2.078913e-004 
2.063232e-004 
2.048256e-004 
2.033992e-004 
2.020440e-004 
2.007594e-004 
1.995436e-004 
1.983943e-004 
1.973084e-004 
1.962822e-004 
1.953111e-004 
1.943901e-004 
1.935135e-004 
1.926751e-004 
1.918682e-004 
1.910859e-004 
1.903207e-004 
1.895650e-004 
1.888110e-004 
1.880507e-004 
1.872761e-004 
1.864794e-004 
1.856527e-004 
1.847885e-004 
1.838795e-004 
1.829189e-004 
1.819001e-004 
1.808172e-004 
1.796650e-004 
1.784388e-004 
1.771346e-004 
1.757492e-004 
1.742803e-004 
1.727265e-004 
1.710871e-004 
1.693624e-004 
1.675538e-004 
1.656635e-004 
1.636945e-004 
1.616510e-004 
1.595378e-004 
1.573609e-004 
1.551268e-004 
1.528430e-004 
1.505176e-004 
1.481592e-004 
1.457773e-004 
1.433817e-004 
1.409824e-004 
1.385901e-004 
1.362153e-004 
1.338689e-004 
1.315615e-004 
1.293040e-004 
1.271066e-004 
1.249794e-004 
1.229322e-004 
1.209740e-004 
1.191133e-004 
1.173578e-004 
1.157144e-004 
1.141891e-004 
1.127869e-004 
1.115115e-004 
1.103657e-004 
1.093509e-004 
1.084671e-004 
1.077127e-004 
1.070846e-004 
1.065778e-004 
1.061853e-004 
1.058978e-004 
1.057030e-004 
1.055852e-004 
1.055243e-004 
1.054974e-004 
1.054757e-004 
1.054102e-004 
1.052137e-004 
1.048368e-004 
1.041732e-004 
1.033922e-004 
1.000000e+000 
1.000000e+000 
2.626458e-004 
2.626378e-004 
2.624328e-004 
2.620994e-004 
2.618879e-004 
2.617563e-004 
2.616295e-004 
2.614817e-004 
2.612947e-004 
2.610489e-004 
2.607284e-004 
2.603214e-004 
2.598191e-004 
2.592151e-004 
2.585045e-004 
2.576848e-004 
2.567547e-004 
2.557146e-004 
2.545658e-004 
2.533112e-004 
2.519543e-004 
2.504998e-004 
2.489532e-004 
2.473207e-004 
2.456091e-004 
2.438258e-004 
2.419788e-004 
2.400763e-004 
2.381268e-004 
2.361393e-004 
2.341226e-004 
2.320856e-004 
2.300373e-004 
2.279864e-004 
2.259415e-004 
2.239109e-004 
2.219026e-004 
2.199240e-004 
2.179821e-004 
2.160835e-004 
2.142339e-004 
2.124387e-004 
2.107024e-004 
2.090288e-004 
2.074210e-004 
2.058814e-004 
2.044114e-004 
2.030118e-004 
2.016826e-004 
2.004230e-004 
1.992314e-004 
1.981054e-004 
1.970420e-004 
1.960373e-004 
1.950871e-004 
1.941862e-004 
1.933292e-004 
1.925097e-004 
1.917214e-004 
1.909572e-004 
1.902099e-004 
1.894719e-004 
1.887356e-004 
1.879930e-004 
1.872365e-004 
1.864582e-004 
1.856504e-004 
1.848057e-004 
1.839170e-004 
1.829774e-004 
1.819806e-004 
1.809208e-004 
1.797928e-004 
1.785919e-004 
1.773143e-004 
1.759568e-004 
1.745172e-004 
1.729939e-004 
1.713864e-004 
1.696949e-004 
1.679208e-004 
1.660661e-004 
1.641339e-004 
1.621281e-004 
1.600537e-004 
1.579162e-004 
1.557222e-004 
1.534788e-004 
1.511941e-004 
1.488765e-004 
1.465352e-004 
1.441798e-004 
1.418201e-004 
1.394663e-004 
1.371290e-004 
1.348186e-004 
1.325456e-004 
1.303203e-004 
1.281528e-004 
1.260530e-004 
1.240301e-004 
1.220931e-004 
1.202499e-004 
1.185082e-004 
1.168745e-004 
1.153545e-004 
1.139529e-004 
1.126733e-004 
1.115181e-004 
1.104885e-004 
1.095844e-004 
1.088041e-004 
1.081444e-004 
1.076004e-004 
1.071651e-004 
1.068295e-004 
1.065824e-004 
1.064095e-004 
1.062922e-004 
1.062084e-004 
1.061373e-004 
1.060512e-004 
1.058677e-004 
1.055417e-004 
1.053503e-004 
1.053682e-004 
1.000000e+000 
1.000000e+000 
2.614908e-004 
2.615429e-004 
2.614512e-004 
2.613130e-004 
2.611849e-004 
2.610451e-004 
2.608977e-004 
2.607266e-004 
2.605089e-004 
2.602288e-004 
2.598747e-004 
2.594365e-004 
2.589060e-004 
2.582772e-004 
2.575459e-004 
2.567095e-004 
2.557669e-004 
2.547182e-004 
2.535649e-004 
2.523095e-004 
2.509556e-004 
2.495074e-004 
2.479703e-004 
2.463503e-004 
2.446539e-004 
2.428884e-004 
2.410614e-004 
2.391809e-004 
2.372553e-004 
2.352931e-004 
2.333031e-004 
2.312939e-004 
2.292744e-004 
2.272530e-004 
2.252381e-004 
2.232379e-004 
2.212601e-004 
2.193121e-004 
2.174008e-004 
2.155324e-004 
2.137127e-004 
2.119469e-004 
2.102394e-004 
2.085940e-004 
2.070136e-004 
2.055005e-004 
2.040562e-004 
2.026813e-004 
2.013760e-004 
2.001392e-004 
1.989694e-004 
1.978643e-004 
1.968207e-004 
1.958351e-004 
1.949031e-004 
1.940196e-004 
1.931791e-004 
1.923756e-004 
1.916027e-004 
1.908535e-004 
1.901208e-004 
1.893972e-004 
1.886752e-004 
1.879470e-004 
1.872050e-004 
1.864414e-004 
1.856488e-004 
1.848199e-004 
1.839476e-004 
1.830253e-004 
1.820466e-004 
1.810060e-004 
1.798982e-004 
1.787188e-004 
1.774638e-004 
1.761303e-004 
1.747160e-004 
1.732193e-004 
1.716398e-004 
1.699776e-004 
1.682341e-004 
1.664112e-004 
1.645119e-004 
1.625402e-004 
1.605007e-004 
1.583990e-004 
1.562414e-004 
1.540351e-004 
1.517877e-004 
1.495076e-004 
1.472037e-004 
1.448853e-004 
1.425622e-004 
1.402444e-004 
1.379419e-004 
1.356651e-004 
1.334242e-004 
1.312291e-004 
1.290898e-004 
1.270159e-004 
1.250163e-004 
1.230996e-004 
1.212737e-004 
1.195458e-004 
1.179223e-004 
1.164086e-004 
1.150092e-004 
1.137276e-004 
1.125661e-004 
1.115256e-004 
1.106061e-004 
1.098058e-004 
1.091216e-004 
1.085490e-004 
1.080814e-004 
1.077105e-004 
1.074258e-004 
1.072148e-004 
1.070638e-004 
1.069544e-004 
1.068612e-004 
1.067661e-004 
1.066744e-004 
1.065624e-004 
1.064939e-004 
1.065751e-004 
1.000000e+000 
1.000000e+000 
2.604057e-004 
2.604736e-004 
2.604868e-004 
2.604708e-004 
2.603948e-004 
2.602839e-004 
2.601478e-004 
2.599689e-004 
2.597344e-004 
2.594344e-004 
2.590590e-004 
2.585995e-004 
2.580489e-004 
2.574022e-004 
2.566557e-004 
2.558072e-004 
2.548557e-004 
2.538014e-004 
2.526459e-004 
2.513915e-004 
2.500417e-004 
2.486007e-004 
2.470737e-004 
2.454664e-004 
2.437852e-004 
2.420372e-004 
2.402297e-004 
2.383706e-004 
2.364681e-004 
2.345305e-004 
2.325663e-004 
2.305840e-004 
2.285922e-004 
2.265991e-004 
2.246131e-004 
2.226421e-004 
2.206936e-004 
2.187749e-004 
2.168926e-004 
2.150531e-004 
2.132618e-004 
2.115238e-004 
2.098435e-004 
2.082245e-004 
2.066697e-004 
2.051812e-004 
2.037606e-004 
2.024085e-004 
2.011248e-004 
1.999086e-004 
1.987583e-004 
1.976716e-004 
1.966455e-004 
1.956762e-004 
1.947596e-004 
1.938905e-004 
1.930637e-004 
1.922732e-004 
1.915126e-004 
1.907751e-004 
1.900537e-004 
1.893411e-004 
1.886299e-004 
1.879126e-004 
1.871814e-004 
1.864290e-004 
1.856479e-004 
1.848310e-004 
1.839713e-004 
1.830624e-004 
1.820980e-004 
1.810726e-004 
1.799812e-004 
1.788192e-004 
1.775831e-004 
1.762696e-004 
1.748767e-004 
1.734028e-004 
1.718473e-004 
1.702107e-004 
1.684939e-004 
1.666991e-004 
1.648291e-004 
1.628878e-004 
1.608798e-004 
1.588104e-004 
1.566859e-004 
1.545132e-004 
1.523000e-004 
1.500542e-004 
1.477848e-004 
1.455007e-004 
1.432115e-004 
1.409270e-004 
1.386570e-004 
1.364116e-004 
1.342007e-004 
1.320341e-004 
1.299215e-004 
1.278721e-004 
1.258948e-004 
1.239978e-004 
1.221889e-004 
1.204750e-004 
1.188622e-004 
1.173559e-004 
1.159605e-004 
1.146791e-004 
1.135141e-004 
1.124665e-004 
1.115361e-004 
1.107214e-004 
1.100196e-004 
1.094264e-004 
1.089359e-004 
1.085408e-004 
1.082322e-004 
1.079991e-004 
1.078293e-004 
1.077112e-004 
1.076300e-004 
1.075664e-004 
1.075309e-004 
1.075517e-004 
1.075951e-004 
1.076894e-004 
1.000000e+000 
1.000000e+000 
2.592858e-004 
2.594447e-004 
2.595483e-004 
2.595902e-004 
2.595716e-004 
2.595071e-004 
2.593898e-004 
2.592148e-004 
2.589777e-004 
2.586698e-004 
2.582829e-004 
2.578105e-004 
2.572473e-004 
2.565891e-004 
2.558328e-004 
2.549765e-004 
2.540197e-004 
2.529628e-004 
2.518073e-004 
2.505558e-004 
2.492115e-004 
2.477786e-004 
2.462623e-004 
2.446680e-004 
2.430022e-004 
2.412715e-004 
2.394834e-004 
2.376453e-004 
2.357654e-004 
2.338517e-004 
2.319125e-004 
2.299562e-004 
2.279912e-004 
2.260255e-004 
2.240673e-004 
2.221243e-004 
2.202040e-004 
2.183133e-004 
2.164588e-004 
2.146467e-004 
2.128824e-004 
2.111707e-004 
2.095160e-004 
2.079217e-004 
2.063907e-004 
2.049251e-004 
2.035262e-004 
2.021947e-004 
2.009304e-004 
1.997325e-004 
1.985994e-004 
1.975286e-004 
1.965173e-004 
1.955617e-004 
1.946577e-004 
1.938002e-004 
1.929841e-004 
1.922033e-004 
1.914518e-004 
1.907227e-004 
1.900092e-004 
1.893042e-004 
1.886003e-004 
1.878900e-004 
1.871661e-004 
1.864210e-004 
1.856476e-004 
1.848388e-004 
1.839879e-004 
1.830884e-004 
1.821344e-004 
1.811203e-004 
1.800413e-004 
1.788929e-004 
1.776716e-004 
1.763743e-004 
1.749988e-004 
1.735438e-004 
1.720087e-004 
1.703938e-004 
1.687001e-004 
1.669297e-004 
1.650855e-004 
1.631711e-004 
1.611910e-004 
1.591506e-004 
1.570560e-004 
1.549139e-004 
1.527317e-004 
1.505174e-004 
1.482796e-004 
1.460271e-004 
1.437693e-004 
1.415157e-004 
1.392759e-004 
1.370599e-004 
1.348772e-004 
1.327375e-004 
1.306502e-004 
1.286243e-004 
1.266684e-004 
1.247907e-004 
1.229985e-004 
1.212988e-004 
1.196975e-004 
1.181997e-004 
1.168098e-004 
1.155309e-004 
1.143654e-004 
1.133142e-004 
1.123773e-004 
1.115534e-004 
1.108401e-004 
1.102336e-004 
1.097288e-004 
1.093193e-004 
1.089977e-004 
1.087555e-004 
1.085824e-004 
1.084681e-004 
1.084069e-004 
1.083932e-004 
1.084190e-004 
1.085006e-004 
1.086394e-004 
1.088284e-004 
1.000000e+000 
1.000000e+000 
2.581814e-004 
2.584338e-004 
2.586107e-004 
2.587124e-004 
2.587518e-004 
2.587267e-004 
2.586344e-004 
2.584757e-004 
2.582456e-004 
2.579381e-004 
2.575480e-004 
2.570706e-004 
2.565015e-004 
2.558375e-004 
2.550762e-004 
2.542164e-004 
2.532578e-004 
2.522011e-004 
2.510481e-004 
2.498012e-004 
2.484639e-004 
2.470403e-004 
2.455354e-004 
2.439548e-004 
2.423045e-004 
2.405913e-004 
2.388224e-004 
2.370051e-004 
2.351473e-004 
2.332570e-004 
2.313422e-004 
2.294113e-004 
2.274722e-004 
2.255330e-004 
2.236016e-004 
2.216856e-004 
2.197923e-004 
2.179285e-004 
2.161006e-004 
2.143145e-004 
2.125757e-004 
2.108888e-004 
2.092581e-004 
2.076868e-004 
2.061778e-004 
2.047332e-004 
2.033541e-004 
2.020411e-004 
2.007941e-004 
1.996122e-004 
1.984938e-004 
1.974364e-004 
1.964373e-004 
1.954926e-004 
1.945983e-004 
1.937495e-004 
1.929409e-004 
1.921668e-004 
1.914210e-004 
1.906969e-004 
1.899879e-004 
1.892868e-004 
1.885865e-004 
1.878798e-004 
1.871592e-004 
1.864177e-004 
1.856481e-004 
1.848436e-004 
1.839974e-004 
1.831035e-004 
1.821558e-004 
1.811491e-004 
1.800785e-004 
1.789397e-004 
1.777293e-004 
1.764442e-004 
1.750824e-004 
1.736425e-004 
1.721239e-004 
1.705269e-004 
1.688527e-004 
1.671032e-004 
1.652811e-004 
1.633902e-004 
1.614348e-004 
1.594201e-004 
1.573522e-004 
1.552375e-004 
1.530835e-004 
1.508979e-004 
1.486890e-004 
1.464656e-004 
1.442368e-004 
1.420118e-004 
1.398003e-004 
1.376117e-004 
1.354556e-004 
1.333413e-004 
1.312781e-004 
1.292747e-004 
1.273396e-004 
1.254807e-004 
1.237053e-004 
1.220201e-004 
1.204310e-004 
1.189429e-004 
1.175602e-004 
1.162860e-004 
1.151226e-004 
1.140712e-004 
1.131320e-004 
1.123038e-004 
1.115848e-004 
1.109716e-004 
1.104600e-004 
1.100447e-004 
1.097193e-004 
1.094771e-004 
1.093113e-004 
1.092141e-004 
1.091792e-004 
1.092071e-004 
1.092943e-004 
1.094383e-004 
1.096531e-004 
1.099391e-004 
1.000000e+000 
1.000000e+000 
2.571106e-004 
2.574414e-004 
2.576873e-004 
2.578535e-004 
2.579443e-004 
2.579583e-004 
2.578976e-004 
2.577606e-004 
2.575437e-004 
2.572440e-004 
2.568579e-004 
2.563818e-004 
2.558125e-004 
2.551477e-004 
2.543860e-004 
2.535265e-004 
2.525694e-004 
2.515158e-004 
2.503675e-004 
2.491272e-004 
2.477983e-004 
2.463852e-004 
2.448927e-004 
2.433262e-004 
2.416920e-004 
2.399964e-004 
2.382467e-004 
2.364500e-004 
2.346141e-004 
2.327467e-004 
2.308558e-004 
2.289495e-004 
2.270357e-004 
2.251222e-004 
2.232167e-004 
2.213268e-004 
2.194593e-004 
2.176212e-004 
2.158186e-004 
2.140573e-004 
2.123426e-004 
2.106791e-004 
2.090707e-004 
2.075208e-004 
2.060321e-004 
2.046064e-004 
2.032451e-004 
2.019486e-004 
2.007167e-004 
1.995484e-004 
1.984422e-004 
1.973957e-004 
1.964060e-004 
1.954695e-004 
1.945820e-004 
1.937388e-004 
1.929346e-004 
1.921639e-004 
1.914206e-004 
1.906982e-004 
1.899901e-004 
1.892894e-004 
1.885891e-004 
1.878821e-004 
1.871612e-004 
1.864194e-004 
1.856497e-004 
1.848455e-004 
1.840002e-004 
1.831078e-004 
1.821626e-004 
1.811592e-004 
1.800931e-004 
1.789600e-004 
1.777565e-004 
1.764798e-004 
1.751277e-004 
1.736991e-004 
1.721933e-004 
1.706106e-004 
1.689522e-004 
1.672200e-004 
1.654167e-004 
1.635459e-004 
1.616118e-004 
1.596198e-004 
1.575754e-004 
1.554853e-004 
1.533566e-004 
1.511969e-004 
1.490144e-004 
1.468176e-004 
1.446155e-004 
1.424171e-004 
1.402318e-004 
1.380689e-004 
1.359378e-004 
1.338476e-004 
1.318073e-004 
1.298256e-004 
1.279107e-004 
1.260704e-004 
1.243118e-004 
1.226415e-004 
1.210652e-004 
1.195881e-004 
1.182142e-004 
1.169468e-004 
1.157882e-004 
1.147398e-004 
1.138019e-004 
1.129739e-004 
1.122542e-004 
1.116401e-004 
1.111281e-004 
1.107140e-004 
1.103927e-004 
1.101587e-004 
1.100068e-004 
1.099325e-004 
1.099309e-004 
1.099997e-004 
1.101405e-004 
1.103515e-004 
1.106373e-004 
1.110033e-004 
1.000000e+000 
1.000000e+000 
2.560745e-004 
2.564791e-004 
2.567932e-004 
2.570200e-004 
2.571604e-004 
2.572165e-004 
2.571894e-004 
2.570774e-004 
2.568792e-004 
2.565930e-004 
2.562162e-004 
2.557465e-004 
2.551819e-004 
2.545209e-004 
2.537627e-004 
2.529070e-004 
2.519545e-004 
2.509065e-004 
2.497652e-004 
2.485333e-004 
2.472145e-004 
2.458130e-004 
2.443337e-004 
2.427821e-004 
2.411643e-004 
2.394867e-004 
2.377562e-004 
2.359801e-004 
2.341658e-004 
2.323210e-004 
2.304536e-004 
2.285713e-004 
2.266821e-004 
2.247935e-004 
2.229131e-004 
2.210481e-004 
2.192056e-004 
2.173920e-004 
2.156135e-004 
2.138757e-004 
2.121837e-004 
2.105419e-004 
2.089543e-004 
2.074241e-004 
2.059538e-004 
2.045453e-004 
2.031997e-004 
2.019175e-004 
2.006984e-004 
1.995415e-004 
1.984451e-004 
1.974069e-004 
1.964240e-004 
1.954928e-004 
1.946092e-004 
1.937685e-004 
1.929657e-004 
1.921952e-004 
1.914510e-004 
1.907268e-004 
1.900162e-004 
1.893123e-004 
1.886084e-004 
1.878973e-004 
1.871723e-004 
1.864264e-004 
1.856528e-004 
1.848450e-004 
1.839967e-004 
1.831020e-004 
1.821552e-004 
1.811513e-004 
1.800857e-004 
1.789544e-004 
1.777539e-004 
1.764817e-004 
1.751357e-004 
1.737145e-004 
1.722178e-004 
1.706459e-004 
1.689997e-004 
1.672813e-004 
1.654933e-004 
1.636393e-004 
1.617234e-004 
1.597508e-004 
1.577270e-004 
1.556586e-004 
1.535524e-004 
1.514160e-004 
1.492573e-004 
1.470848e-004 
1.449072e-004 
1.427333e-004 
1.405724e-004 
1.384336e-004 
1.363259e-004 
1.342585e-004 
1.322401e-004 
1.302793e-004 
1.283840e-004 
1.265620e-004 
1.248202e-004 
1.231652e-004 
1.216026e-004 
1.201375e-004 
1.187739e-004 
1.175152e-004 
1.163639e-004 
1.153214e-004 
1.143884e-004 
1.135645e-004 
1.128485e-004 
1.122385e-004 
1.117316e-004 
1.113245e-004 
1.110131e-004 
1.107935e-004 
1.106614e-004 
1.106134e-004 
1.106470e-004 
1.107596e-004 
1.109518e-004 
1.112253e-004 
1.115808e-004 
1.120215e-004 
1.000000e+000 
1.000000e+000 
2.550798e-004 
2.555573e-004 
2.559372e-004 
2.562214e-004 
2.564118e-004 
2.565107e-004 
2.565183e-004 
2.564345e-004 
2.562588e-004 
2.559901e-004 
2.556269e-004 
2.551680e-004 
2.546122e-004 
2.539588e-004 
2.532075e-004 
2.523588e-004 
2.514136e-004 
2.503736e-004 
2.492413e-004 
2.480195e-004 
2.467121e-004 
2.453234e-004 
2.438583e-004 
2.423224e-004 
2.407214e-004 
2.390620e-004 
2.373509e-004 
2.355953e-004 
2.338024e-004 
2.319800e-004 
2.301355e-004 
2.282768e-004 
2.264115e-004 
2.245470e-004 
2.226909e-004 
2.208500e-004 
2.190314e-004 
2.172412e-004 
2.154856e-004 
2.137699e-004 
2.120992e-004 
2.104778e-004 
2.089094e-004 
2.073971e-004 
2.059434e-004 
2.045501e-004 
2.032183e-004 
2.019483e-004 
2.007398e-004 
1.995918e-004 
1.985027e-004 
1.974702e-004 
1.964914e-004 
1.955627e-004 
1.946801e-004 
1.938390e-004 
1.930344e-004 
1.922609e-004 
1.915125e-004 
1.907832e-004 
1.900665e-004 
1.893559e-004 
1.886446e-004 
1.879260e-004 
1.871931e-004 
1.864393e-004 
1.856580e-004 
1.848428e-004 
1.839876e-004 
1.830866e-004 
1.821343e-004 
1.811260e-004 
1.800571e-004 
1.789236e-004 
1.777225e-004 
1.764510e-004 
1.751071e-004 
1.736898e-004 
1.721986e-004 
1.706337e-004 
1.689963e-004 
1.672883e-004 
1.655123e-004 
1.636718e-004 
1.617709e-004 
1.598147e-004 
1.578086e-004 
1.557590e-004 
1.536726e-004 
1.515569e-004 
1.494196e-004 
1.472691e-004 
1.451138e-004 
1.429625e-004 
1.408241e-004 
1.387076e-004 
1.366221e-004 
1.345762e-004 
1.325788e-004 
1.306380e-004 
1.287618e-004 
1.269578e-004 
1.252330e-004 
1.235936e-004 
1.220453e-004 
1.205931e-004 
1.192413e-004 
1.179931e-004 
1.168511e-004 
1.158171e-004 
1.148919e-004 
1.140755e-004 
1.133672e-004 
1.127655e-004 
1.122683e-004 
1.118728e-004 
1.115762e-004 
1.113752e-004 
1.112670e-004 
1.112486e-004 
1.113185e-004 
1.114756e-004 
1.117193e-004 
1.120515e-004 
1.124740e-004 
1.129881e-004 
1.000000e+000 
1.000000e+000 
2.541362e-004 
2.546842e-004 
2.551274e-004 
2.554676e-004 
2.557076e-004 
2.558490e-004 
2.558926e-004 
2.558392e-004 
2.556886e-004 
2.554405e-004 
2.550943e-004 
2.546496e-004 
2.541059e-004 
2.534632e-004 
2.527219e-004 
2.518828e-004 
2.509474e-004 
2.499176e-004 
2.487961e-004 
2.475861e-004 
2.462915e-004 
2.449166e-004 
2.434666e-004 
2.419468e-004 
2.403633e-004 
2.387224e-004 
2.370308e-004 
2.352956e-004 
2.335241e-004 
2.317236e-004 
2.299018e-004 
2.280661e-004 
2.262241e-004 
2.243831e-004 
2.225503e-004 
2.207327e-004 
2.189369e-004 
2.171691e-004 
2.154351e-004 
2.137403e-004 
2.120895e-004 
2.104868e-004 
2.089360e-004 
2.074400e-004 
2.060012e-004 
2.046212e-004 
2.033010e-004 
2.020410e-004 
2.008408e-004 
1.996995e-004 
1.986152e-004 
1.975859e-004 
1.966084e-004 
1.956795e-004 
1.947950e-004 
1.939505e-004 
1.931410e-004 
1.923612e-004 
1.916054e-004 
1.908675e-004 
1.901414e-004 
1.894205e-004 
1.886984e-004 
1.879684e-004 
1.872240e-004 
1.864586e-004 
1.856657e-004 
1.848393e-004 
1.839734e-004 
1.830623e-004 
1.821008e-004 
1.810842e-004 
1.800081e-004 
1.788688e-004 
1.776631e-004 
1.763886e-004 
1.750433e-004 
1.736261e-004 
1.721368e-004 
1.705755e-004 
1.689434e-004 
1.672424e-004 
1.654751e-004 
1.636449e-004 
1.617559e-004 
1.598131e-004 
1.578218e-004 
1.557882e-004 
1.537190e-004 
1.516214e-004 
1.495032e-004 
1.473723e-004 
1.452372e-004 
1.431065e-004 
1.409889e-004 
1.388933e-004 
1.368284e-004 
1.348029e-004 
1.328253e-004 
1.309038e-004 
1.290462e-004 
1.272600e-004 
1.255520e-004 
1.239284e-004 
1.223950e-004 
1.209567e-004 
1.196178e-004 
1.183816e-004 
1.172510e-004 
1.162277e-004 
1.153129e-004 
1.145070e-004 
1.138095e-004 
1.132196e-004 
1.127356e-004 
1.123557e-004 
1.120774e-004 
1.118985e-004 
1.118168e-004 
1.118305e-004 
1.119380e-004 
1.121390e-004 
1.124336e-004 
1.128228e-004 
1.133091e-004 
1.138940e-004 
1.000000e+000 
1.000000e+000 
2.532523e-004 
2.538678e-004 
2.543720e-004 
2.547670e-004 
2.550555e-004 
2.552393e-004 
2.553198e-004 
2.552980e-004 
2.551743e-004 
2.549492e-004 
2.546226e-004 
2.541948e-004 
2.536660e-004 
2.530367e-004 
2.523078e-004 
2.514807e-004 
2.505570e-004 
2.495393e-004 
2.484303e-004 
2.472335e-004 
2.459528e-004 
2.445929e-004 
2.431587e-004 
2.416558e-004 
2.400900e-004 
2.384679e-004 
2.367960e-004 
2.350812e-004 
2.333309e-004 
2.315522e-004 
2.297525e-004 
2.279394e-004 
2.261201e-004 
2.243018e-004 
2.224916e-004 
2.206963e-004 
2.189223e-004 
2.171758e-004 
2.154623e-004 
2.137870e-004 
2.121547e-004 
2.105694e-004 
2.090345e-004 
2.075531e-004 
2.061272e-004 
2.047586e-004 
2.034481e-004 
2.021960e-004 
2.010020e-004 
1.998648e-004 
1.987830e-004 
1.977542e-004 
1.967754e-004 
1.958434e-004 
1.949542e-004 
1.941032e-004 
1.932858e-004 
1.924966e-004 
1.917300e-004 
1.909803e-004 
1.902412e-004 
1.895066e-004 
1.887701e-004 
1.880252e-004 
1.872656e-004 
1.864848e-004 
1.856768e-004 
1.848354e-004 
1.839549e-004 
1.830299e-004 
1.820554e-004 
1.810267e-004 
1.799397e-004 
1.787907e-004 
1.775768e-004 
1.762956e-004 
1.749452e-004 
1.735246e-004 
1.720336e-004 
1.704724e-004 
1.688422e-004 
1.671449e-004 
1.653830e-004 
1.635600e-004 
1.616799e-004 
1.597475e-004 
1.577681e-004 
1.557478e-004 
1.536932e-004 
1.516113e-004 
1.495097e-004 
1.473964e-004 
1.452794e-004 
1.431674e-004 
1.410688e-004 
1.389924e-004 
1.369467e-004 
1.349404e-004 
1.329817e-004 
1.310787e-004 
1.292391e-004 
1.274703e-004 
1.257790e-004 
1.241715e-004 
1.226534e-004 
1.212297e-004 
1.199047e-004 
1.186819e-004 
1.175641e-004 
1.165534e-004 
1.156512e-004 
1.148582e-004 
1.141743e-004 
1.135990e-004 
1.131313e-004 
1.127697e-004 
1.125126e-004 
1.123584e-004 
1.123053e-004 
1.123522e-004 
1.124981e-004 
1.127428e-004 
1.130870e-004 
1.135316e-004 
1.140790e-004 
1.147309e-004 
1.000000e+000 
1.000000e+000 
2.524359e-004 
2.531160e-004 
2.536789e-004 
2.541269e-004 
2.544628e-004 
2.546887e-004 
2.548063e-004 
2.548169e-004 
2.547215e-004 
2.545210e-004 
2.542159e-004 
2.538071e-004 
2.532953e-004 
2.526815e-004 
2.519672e-004 
2.511539e-004 
2.502440e-004 
2.492399e-004 
2.481448e-004 
2.469624e-004 
2.456968e-004 
2.443527e-004 
2.429350e-004 
2.414495e-004 
2.399020e-004 
2.382989e-004 
2.366467e-004 
2.349524e-004 
2.332231e-004 
2.314659e-004 
2.296881e-004 
2.278970e-004 
2.260998e-004 
2.243035e-004 
2.225151e-004 
2.207412e-004 
2.189881e-004 
2.172617e-004 
2.155675e-004 
2.139105e-004 
2.122952e-004 
2.107257e-004 
2.092052e-004 
2.077366e-004 
2.063220e-004 
2.049628e-004 
2.036600e-004 
2.024136e-004 
2.012234e-004 
2.000881e-004 
1.990062e-004 
1.979754e-004 
1.969927e-004 
1.960548e-004 
1.951579e-004 
1.942976e-004 
1.934691e-004 
1.926673e-004 
1.918868e-004 
1.911219e-004 
1.903665e-004 
1.896147e-004 
1.888603e-004 
1.880969e-004 
1.873184e-004 
1.865187e-004 
1.856917e-004 
1.848316e-004 
1.839329e-004 
1.829903e-004 
1.819990e-004 
1.809545e-004 
1.798528e-004 
1.786905e-004 
1.774647e-004 
1.761730e-004 
1.748140e-004 
1.733865e-004 
1.718902e-004 
1.703257e-004 
1.686941e-004 
1.669972e-004 
1.652376e-004 
1.634187e-004 
1.615444e-004 
1.596195e-004 
1.576492e-004 
1.556395e-004 
1.535968e-004 
1.515282e-004 
1.494410e-004 
1.473429e-004 
1.452421e-004 
1.431468e-004 
1.410655e-004 
1.390067e-004 
1.369789e-004 
1.349904e-004 
1.330496e-004 
1.311642e-004 
1.293421e-004 
1.275903e-004 
1.259156e-004 
1.243242e-004 
1.228217e-004 
1.214131e-004 
1.201028e-004 
1.188944e-004 
1.177909e-004 
1.167944e-004 
1.159066e-004 
1.151285e-004 
1.144603e-004 
1.139019e-004 
1.134528e-004 
1.131119e-004 
1.128781e-004 
1.127502e-004 
1.127272e-004 
1.128082e-004 
1.129927e-004 
1.132807e-004 
1.136731e-004 
1.141710e-004 
1.147768e-004 
1.154922e-004 
1.000000e+000 
1.000000e+000 
2.516941e-004 
2.524357e-004 
2.530549e-004 
2.535540e-004 
2.539361e-004 
2.542034e-004 
2.543579e-004 
2.544013e-004 
2.543351e-004 
2.541603e-004 
2.538783e-004 
2.534901e-004 
2.529970e-004 
2.524005e-004 
2.517023e-004 
2.509046e-004 
2.500097e-004 
2.490207e-004 
2.479408e-004 
2.467740e-004 
2.455244e-004 
2.441968e-004 
2.427964e-004 
2.413287e-004 
2.397998e-004 
2.382159e-004 
2.365836e-004 
2.349097e-004 
2.332012e-004 
2.314652e-004 
2.297088e-004 
2.279393e-004 
2.261636e-004 
2.243886e-004 
2.226212e-004 
2.208678e-004 
2.191346e-004 
2.174272e-004 
2.157510e-004 
2.141110e-004 
2.125115e-004 
2.109562e-004 
2.094485e-004 
2.079910e-004 
2.065858e-004 
2.052341e-004 
2.039369e-004 
2.026942e-004 
2.015055e-004 
2.003698e-004 
1.992853e-004 
1.982498e-004 
1.972605e-004 
1.963140e-004 
1.954066e-004 
1.945339e-004 
1.936913e-004 
1.928738e-004 
1.920761e-004 
1.912927e-004 
1.905177e-004 
1.897453e-004 
1.889694e-004 
1.881840e-004 
1.873831e-004 
1.865607e-004 
1.857111e-004 
1.848287e-004 
1.839080e-004 
1.829441e-004 
1.819323e-004 
1.808683e-004 
1.797483e-004 
1.785690e-004 
1.773276e-004 
1.760220e-004 
1.746507e-004 
1.732128e-004 
1.717079e-004 
1.701367e-004 
1.685003e-004 
1.668005e-004 
1.650401e-004 
1.632221e-004 
1.613507e-004 
1.594304e-004 
1.574665e-004 
1.554647e-004 
1.534314e-004 
1.513736e-004 
1.492983e-004 
1.472134e-004 
1.451266e-004 
1.430462e-004 
1.409805e-004 
1.389377e-004 
1.369263e-004 
1.349545e-004 
1.330305e-004 
1.311619e-004 
1.293565e-004 
1.276212e-004 
1.259628e-004 
1.243875e-004 
1.229008e-004 
1.215078e-004 
1.202129e-004 
1.190197e-004 
1.179314e-004 
1.169505e-004 
1.160785e-004 
1.153169e-004 
1.146662e-004 
1.141265e-004 
1.136977e-004 
1.133792e-004 
1.131703e-004 
1.130701e-004 
1.130781e-004 
1.131935e-004 
1.134164e-004 
1.137470e-004 
1.141862e-004 
1.147352e-004 
1.153965e-004 
1.161719e-004 
1.000000e+000 
1.000000e+000 
2.510334e-004 
2.518333e-004 
2.525062e-004 
2.530544e-004 
2.534813e-004 
2.537891e-004 
2.539802e-004 
2.540565e-004 
2.540198e-004 
2.538717e-004 