# vtk DataFile Version 2.0
2D-ADE data file 
ASCII
DATASET RECTILINEAR_GRID
DIMENSIONS 128 128 1
X_COORDINATES 128 int
0 1 2 3 4 5 6 7 8 9 10 11 12 13 14 15 16 17 18 19 20 21 22 23 24 25 26 27 28 29 30 31 32 33 34 35 36 37 38 39 40 41 42 43 44 45 46 47 48 49 50 51 52 53 54 55 56 57 58 59 60 61 62 63 64 65 66 67 68 69 70 71 72 73 74 75 76 77 78 79 80 81 82 83 84 85 86 87 88 89 90 91 92 93 94 95 96 97 98 99 100 101 102 103 104 105 106 107 108 109 110 111 112 113 114 115 116 117 118 119 120 121 122 123 124 125 126 127 
Y_COORDINATES 128 int
0 1 2 3 4 5 6 7 8 9 10 11 12 13 14 15 16 17 18 19 20 21 22 23 24 25 26 27 28 29 30 31 32 33 34 35 36 37 38 39 40 41 42 43 44 45 46 47 48 49 50 51 52 53 54 55 56 57 58 59 60 61 62 63 64 65 66 67 68 69 70 71 72 73 74 75 76 77 78 79 80 81 82 83 84 85 86 87 88 89 90 91 92 93 94 95 96 97 98 99 100 101 102 103 104 105 106 107 108 109 110 111 112 113 114 115 116 117 118 119 120 121 122 123 124 125 126 127 
Z_COORDINATES 1 int
0
POINT_DATA 16384 
SCALARS density double 1
LOOKUP_TABLE default
1.000000e+000 
1.000000e+000 
1.000000e+000 
1.000000e+000 
1.000000e+000 
1.000000e+000 
1.000000e+000 
1.000000e+000 
1.000000e+000 
1.000000e+000 
1.000000e+000 
1.000000e+000 
1.000000e+000 
1.000000e+000 
1.000000e+000 
1.000000e+000 
1.000000e+000 
1.000000e+000 
1.000000e+000 
1.000000e+000 
1.000000e+000 
1.000000e+000 
1.000000e+000 
1.000000e+000 
1.000000e+000 
1.000000e+000 
1.000000e+000 
1.000000e+000 
1.000000e+000 
1.000000e+000 
1.000000e+000 
1.000000e+000 
1.000000e+000 
1.000000e+000 
1.000000e+000 
1.000000e+000 
1.000000e+000 
1.000000e+000 
1.000000e+000 
1.000000e+000 
1.000000e+000 
1.000000e+000 
1.000000e+000 
1.000000e+000 
1.000000e+000 
1.000000e+000 
1.000000e+000 
1.000000e+000 
1.000000e+000 
1.000000e+000 
1.000000e+000 
1.000000e+000 
1.000000e+000 
1.000000e+000 
1.000000e+000 
1.000000e+000 
1.000000e+000 
1.000000e+000 
1.000000e+000 
1.000000e+000 
1.000000e+000 
1.000000e+000 
1.000000e+000 
1.000000e+000 
1.000000e+000 
1.000000e+000 
1.000000e+000 
1.000000e+000 
1.000000e+000 
1.000000e+000 
1.000000e+000 
1.000000e+000 
1.000000e+000 
1.000000e+000 
1.000000e+000 
1.000000e+000 
1.000000e+000 
1.000000e+000 
1.000000e+000 
1.000000e+000 
1.000000e+000 
1.000000e+000 
1.000000e+000 
1.000000e+000 
1.000000e+000 
1.000000e+000 
1.000000e+000 
1.000000e+000 
1.000000e+000 
1.000000e+000 
1.000000e+000 
1.000000e+000 
1.000000e+000 
1.000000e+000 
1.000000e+000 
1.000000e+000 
1.000000e+000 
1.000000e+000 
1.000000e+000 
1.000000e+000 
1.000000e+000 
1.000000e+000 
1.000000e+000 
1.000000e+000 
1.000000e+000 
1.000000e+000 
1.000000e+000 
1.000000e+000 
1.000000e+000 
1.000000e+000 
1.000000e+000 
1.000000e+000 
1.000000e+000 
1.000000e+000 
1.000000e+000 
1.000000e+000 
1.000000e+000 
1.000000e+000 
1.000000e+000 
1.000000e+000 
1.000000e+000 
1.000000e+000 
1.000000e+000 
1.000000e+000 
1.000000e+000 
1.000000e+000 
1.000000e+000 
1.000000e+000 
1.000000e+000 
2.279183e-004 
2.282157e-004 
2.285278e-004 
2.288267e-004 
2.292201e-004 
2.297015e-004 
2.302381e-004 
2.308068e-004 
2.313908e-004 
2.319743e-004 
2.325432e-004 
2.330862e-004 
2.335943e-004 
2.340602e-004 
2.344787e-004 
2.348459e-004 
2.351592e-004 
2.354171e-004 
2.356192e-004 
2.357659e-004 
2.358583e-004 
2.358981e-004 
2.358874e-004 
2.358289e-004 
2.357256e-004 
2.355807e-004 
2.353977e-004 
2.351801e-004 
2.349317e-004 
2.346562e-004 
2.343574e-004 
2.340389e-004 
2.337044e-004 
2.333574e-004 
2.330013e-004 
2.326392e-004 
2.322742e-004 
2.319089e-004 
2.315458e-004 
2.311874e-004 
2.308354e-004 
2.304915e-004 
2.301573e-004 
2.298337e-004 
2.295215e-004 
2.292213e-004 
2.289332e-004 
2.286571e-004 
2.283926e-004 
2.281392e-004 
2.278958e-004 
2.276614e-004 
2.274345e-004 
2.272135e-004 
2.269968e-004 
2.267824e-004 
2.265683e-004 
2.263522e-004 
2.261319e-004 
2.259053e-004 
2.256698e-004 
2.254233e-004 
2.251634e-004 
2.248880e-004 
2.245948e-004 
2.242820e-004 
2.239476e-004 
2.235899e-004 
2.232075e-004 
2.227992e-004 
2.223638e-004 
2.219007e-004 
2.214093e-004 
2.208896e-004 
2.203415e-004 
2.197657e-004 
2.191629e-004 
2.185342e-004 
2.178810e-004 
2.172053e-004 
2.165091e-004 
2.157949e-004 
2.150654e-004 
2.143238e-004 
2.135733e-004 
2.128177e-004 
2.120608e-004 
2.113066e-004 
2.105595e-004 
2.098238e-004 
2.091041e-004 
2.084051e-004 
2.077313e-004 
2.070875e-004 
2.064783e-004 
2.059083e-004 
2.053820e-004 
2.049035e-004 
2.044770e-004 
2.041062e-004 
2.037946e-004 
2.035454e-004 
2.033612e-004 
2.032443e-004 
2.031964e-004 
2.032186e-004 
2.033114e-004 
2.034746e-004 
2.037073e-004 
2.040074e-004 
2.043723e-004 
2.047981e-004 
2.052797e-004 
2.058109e-004 
2.063837e-004 
2.069888e-004 
2.076149e-004 
2.082486e-004 
2.088744e-004 
2.094750e-004 
2.100327e-004 
2.105242e-004 
2.109165e-004 
2.112062e-004 
2.115153e-004 
2.118193e-004 
1.000000e+000 
1.000000e+000 
2.282707e-004 
2.283507e-004 
2.285419e-004 
2.288210e-004 
2.291742e-004 
2.295879e-004 
2.300500e-004 
2.305443e-004 
2.310539e-004 
2.315643e-004 
2.320633e-004 
2.325406e-004 
2.329877e-004 
2.333977e-004 
2.337654e-004 
2.340869e-004 
2.343596e-004 
2.345819e-004 
2.347533e-004 
2.348737e-004 
2.349442e-004 
2.349661e-004 
2.349414e-004 
2.348725e-004 
2.347622e-004 
2.346134e-004 
2.344293e-004 
2.342135e-004 
2.339693e-004 
2.337003e-004 
2.334101e-004 
2.331021e-004 
2.327800e-004 
2.324469e-004 
2.321062e-004 
2.317609e-004 
2.314138e-004 
2.310677e-004 
2.307249e-004 
2.303876e-004 
2.300576e-004 
2.297367e-004 
2.294261e-004 
2.291269e-004 
2.288398e-004 
2.285653e-004 
2.283036e-004 
2.280546e-004 
2.278178e-004 
2.275925e-004 
2.273780e-004 
2.271730e-004 
2.269762e-004 
2.267859e-004 
2.266005e-004 
2.264180e-004 
2.262364e-004 
2.260535e-004 
2.258671e-004 
2.256749e-004 
2.254746e-004 
2.252639e-004 
2.250405e-004 
2.248022e-004 
2.245468e-004 
2.242724e-004 
2.239770e-004 
2.236589e-004 
2.233167e-004 
2.229490e-004 
2.225548e-004 
2.221332e-004 
2.216838e-004 
2.212062e-004 
2.207006e-004 
2.201673e-004 
2.196070e-004 
2.190209e-004 
2.184101e-004 
2.177764e-004 
2.171219e-004 
2.164488e-004 
2.157597e-004 
2.150577e-004 
2.143459e-004 
2.136277e-004 
2.129069e-004 
2.121874e-004 
2.114732e-004 
2.107685e-004 
2.100778e-004 
2.094054e-004 
2.087559e-004 
2.081336e-004 
2.075431e-004 
2.069887e-004 
2.064746e-004 
2.060050e-004 
2.055836e-004 
2.052141e-004 
2.048997e-004 
2.046435e-004 
2.044479e-004 
2.043149e-004 
2.042462e-004 
2.042428e-004 
2.043050e-004 
2.044324e-004 
2.046241e-004 
2.048781e-004 
2.051916e-004 
2.055607e-004 
2.059807e-004 
2.064452e-004 
2.069470e-004 
2.074771e-004 
2.080249e-004 
2.085784e-004 
2.091240e-004 
2.096459e-004 
2.101266e-004 
2.105499e-004 
2.109049e-004 
2.111795e-004 
2.113641e-004 
2.114373e-004 
1.000000e+000 
1.000000e+000 
2.284036e-004 
2.283668e-004 
2.284831e-004 
2.287345e-004 
2.290478e-004 
2.294133e-004 
2.298222e-004 
2.302592e-004 
2.307095e-004 
2.311607e-004 
2.316021e-004 
2.320242e-004 
2.324193e-004 
2.327809e-004 
2.331042e-004 
2.333855e-004 
2.336220e-004 
2.338124e-004 
2.339558e-004 
2.340522e-004 
2.341025e-004 
2.341078e-004 
2.340700e-004 
2.339912e-004 
2.338741e-004 
2.337214e-004 
2.335361e-004 
2.333215e-004 
2.330809e-004 
2.328177e-004 
2.325352e-004 
2.322369e-004 
2.319260e-004 
2.316058e-004 
2.312794e-004 
2.309496e-004 
2.306193e-004 
2.302911e-004 
2.299671e-004 
2.296496e-004 
2.293404e-004 
2.290409e-004 
2.287525e-004 
2.284762e-004 
2.282127e-004 
2.279625e-004 
2.277255e-004 
2.275018e-004 
2.272910e-004 
2.270922e-004 
2.269047e-004 
2.267273e-004 
2.265585e-004 
2.263969e-004 
2.262407e-004 
2.260879e-004 
2.259366e-004 
2.257846e-004 
2.256296e-004 
2.254694e-004 
2.253016e-004 
2.251240e-004 
2.249343e-004 
2.247302e-004 
2.245096e-004 
2.242704e-004 
2.240108e-004 
2.237291e-004 
2.234236e-004 
2.230931e-004 
2.227365e-004 
2.223528e-004 
2.219416e-004 
2.215025e-004 
2.210355e-004 
2.205409e-004 
2.200193e-004 
2.194718e-004 
2.188995e-004 
2.183040e-004 
2.176872e-004 
2.170513e-004 
2.163989e-004 
2.157327e-004 
2.150558e-004 
2.143715e-004 
2.136833e-004 
2.129950e-004 
2.123105e-004 
2.116339e-004 
2.109693e-004 
2.103210e-004 
2.096933e-004 
2.090904e-004 
2.085167e-004 
2.079763e-004 
2.074733e-004 
2.070116e-004 
2.065949e-004 
2.062265e-004 
2.059097e-004 
2.056471e-004 
2.054413e-004 
2.052941e-004 
2.052069e-004 
2.051807e-004 
2.052158e-004 
2.053117e-004 
2.054674e-004 
2.056809e-004 
2.059496e-004 
2.062697e-004 
2.066366e-004 
2.070444e-004 
2.074861e-004 
2.079535e-004 
2.084370e-004 
2.089256e-004 
2.094072e-004 
2.098684e-004 
2.102937e-004 
2.106676e-004 
2.109824e-004 
2.112297e-004 
2.113344e-004 
2.112791e-004 
1.000000e+000 
1.000000e+000 
2.282342e-004 
2.282226e-004 
2.283424e-004 
2.285619e-004 
2.288470e-004 
2.291854e-004 
2.295584e-004 
2.299531e-004 
2.303583e-004 
2.307634e-004 
2.311585e-004 
2.315353e-004 
2.318869e-004 
2.322075e-004 
2.324926e-004 
2.327387e-004 
2.329435e-004 
2.331055e-004 
2.332238e-004 
2.332986e-004 
2.333304e-004 
2.333206e-004 
2.332706e-004 
2.331826e-004 
2.330590e-004 
2.329024e-004 
2.327158e-004 
2.325022e-004 
2.322647e-004 
2.320066e-004 
2.317311e-004 
2.314415e-004 
2.311410e-004 
2.308327e-004 
2.305194e-004 
2.302042e-004 
2.298895e-004 
2.295779e-004 
2.292716e-004 
2.289726e-004 
2.286827e-004 
2.284034e-004 
2.281358e-004 
2.278810e-004 
2.276396e-004 
2.274120e-004 
2.271983e-004 
2.269984e-004 
2.268118e-004 
2.266378e-004 
2.264755e-004 
2.263238e-004 
2.261813e-004 
2.260463e-004 
2.259172e-004 
2.257920e-004 
2.256687e-004 
2.255452e-004 
2.254192e-004 
2.252885e-004 
2.251507e-004 
2.250035e-004 
2.248447e-004 
2.246719e-004 
2.244831e-004 
2.242762e-004 
2.240493e-004 
2.238006e-004 
2.235286e-004 
2.232319e-004 
2.229094e-004 
2.225601e-004 
2.221835e-004 
2.217792e-004 
2.213471e-004 
2.208875e-004 
2.204009e-004 
2.198881e-004 
2.193505e-004 
2.187893e-004 
2.182066e-004 
2.176042e-004 
2.169847e-004 
2.163507e-004 
2.157052e-004 
2.150513e-004 
2.143924e-004 
2.137322e-004 
2.130743e-004 
2.124228e-004 
2.117817e-004 
2.111549e-004 
2.105468e-004 
2.099613e-004 
2.094027e-004 
2.088749e-004 
2.083818e-004 
2.079272e-004 
2.075147e-004 
2.071474e-004 
2.068285e-004 
2.065605e-004 
2.063457e-004 
2.061860e-004 
2.060827e-004 
2.060366e-004 
2.060480e-004 
2.061164e-004 
2.062409e-004 
2.064196e-004 
2.066499e-004 
2.069283e-004 
2.072503e-004 
2.076106e-004 
2.080028e-004 
2.084192e-004 
2.088513e-004 
2.092893e-004 
2.097220e-004 
2.101379e-004 
2.105252e-004 
2.108708e-004 
2.111558e-004 
2.113683e-004 
2.114731e-004 
2.114379e-004 
1.000000e+000 
1.000000e+000 
2.278889e-004 
2.279454e-004 
2.280915e-004 
2.283093e-004 
2.285891e-004 
2.289119e-004 
2.292615e-004 
2.296280e-004 
2.300012e-004 
2.303714e-004 
2.307304e-004 
2.310710e-004 
2.313871e-004 
2.316737e-004 
2.319266e-004 
2.321428e-004 
2.323202e-004 
2.324574e-004 
2.325537e-004 
2.326093e-004 
2.326247e-004 
2.326011e-004 
2.325402e-004 
2.324438e-004 
2.323142e-004 
2.321541e-004 
2.319662e-004 
2.317534e-004 
2.315187e-004 
2.312654e-004 
2.309964e-004 
2.307149e-004 
2.304240e-004 
2.301266e-004 
2.298257e-004 
2.295239e-004 
2.292238e-004 
2.289277e-004 
2.286380e-004 
2.283563e-004 
2.280845e-004 
2.278240e-004 
2.275760e-004 
2.273413e-004 
2.271206e-004 
2.269142e-004 
2.267222e-004 
2.265444e-004 
2.263804e-004 
2.262295e-004 
2.260907e-004 
2.259628e-004 
2.258445e-004 
2.257342e-004 
2.256301e-004 
2.255304e-004 
2.254329e-004 
2.253356e-004 
2.252362e-004 
2.251324e-004 
2.250219e-004 
2.249025e-004 
2.247717e-004 
2.246275e-004 
2.244675e-004 
2.242898e-004 
2.240925e-004 
2.238737e-004 
2.236318e-004 
2.233656e-004 
2.230737e-004 
2.227554e-004 
2.224099e-004 
2.220368e-004 
2.216360e-004 
2.212076e-004 
2.207523e-004 
2.202708e-004 
2.197641e-004 
2.192337e-004 
2.186813e-004 
2.181089e-004 
2.175188e-004 
2.169135e-004 
2.162960e-004 
2.156692e-004 
2.150365e-004 
2.144013e-004 
2.137673e-004 
2.131382e-004 
2.125180e-004 
2.119105e-004 
2.113198e-004 
2.107500e-004 
2.102049e-004 
2.096884e-004 
2.092043e-004 
2.087562e-004 
2.083476e-004 
2.079816e-004 
2.076610e-004 
2.073885e-004 
2.071661e-004 
2.069957e-004 
2.068786e-004 
2.068155e-004 
2.068067e-004 
2.068518e-004 
2.069499e-004 
2.070991e-004 
2.072972e-004 
2.075407e-004 
2.078258e-004 
2.081473e-004 
2.084996e-004 
2.088756e-004 
2.092679e-004 
2.096677e-004 
2.100656e-004 
2.104510e-004 
2.108130e-004 
2.111413e-004 
2.114192e-004 
2.116274e-004 
2.117558e-004 
2.117860e-004 
1.000000e+000 
1.000000e+000 
2.274266e-004 
2.275547e-004 
2.277447e-004 
2.279894e-004 
2.282785e-004 
2.285978e-004 
2.289376e-004 
2.292882e-004 
2.296401e-004 
2.299856e-004 
2.303179e-004 
2.306307e-004 
2.309187e-004 
2.311778e-004 
2.314042e-004 
2.315955e-004 
2.317497e-004 
2.318657e-004 
2.319431e-004 
2.319820e-004 
2.319831e-004 
2.319475e-004 
2.318769e-004 
2.317731e-004 
2.316383e-004 
2.314751e-004 
2.312861e-004 
2.310742e-004 
2.308422e-004 
2.305933e-004 
2.303303e-004 
2.300564e-004 
2.297744e-004 
2.294873e-004 
2.291979e-004 
2.289087e-004 
2.286222e-004 
2.283408e-004 
2.280664e-004 
2.278010e-004 
2.275462e-004 
2.273033e-004 
2.270734e-004 
2.268575e-004 
2.266560e-004 
2.264693e-004 
2.262975e-004 
2.261403e-004 
2.259973e-004 
2.258677e-004 
2.257506e-004 
2.256447e-004 
2.255487e-004 
2.254610e-004 
2.253799e-004 
2.253034e-004 
2.252295e-004 
2.251560e-004 
2.250807e-004 
2.250014e-004 
2.249157e-004 
2.248213e-004 
2.247158e-004 
2.245972e-004 
2.244631e-004 
2.243116e-004 
2.241407e-004 
2.239486e-004 
2.237337e-004 
2.234945e-004 
2.232300e-004 
2.229391e-004 
2.226212e-004 
2.222758e-004 
2.219028e-004 
2.215022e-004 
2.210746e-004 
2.206206e-004 
2.201413e-004 
2.196381e-004 
2.191126e-004 
2.185667e-004 
2.180026e-004 
2.174228e-004 
2.168300e-004 
2.162272e-004 
2.156177e-004 
2.150046e-004 
2.143917e-004 
2.137825e-004 
2.131808e-004 
2.125905e-004 
2.120154e-004 
2.114595e-004 
2.109265e-004 
2.104202e-004 
2.099443e-004 
2.095022e-004 
2.090973e-004 
2.087327e-004 
2.084111e-004 
2.081350e-004 
2.079065e-004 
2.077273e-004 
2.075987e-004 
2.075215e-004 
2.074959e-004 
2.075217e-004 
2.075978e-004 
2.077228e-004 
2.078945e-004 
2.081099e-004 
2.083652e-004 
2.086561e-004 
2.089774e-004 
2.093229e-004 
2.096858e-004 
2.100587e-004 
2.104333e-004 
2.108010e-004 
2.111517e-004 
2.114748e-004 
2.117603e-004 
2.119936e-004 
2.121639e-004 
2.122637e-004 
1.000000e+000 
1.000000e+000 
2.268747e-004 
2.270817e-004 
2.273294e-004 
2.276128e-004 
2.279229e-004 
2.282524e-004 
2.285935e-004 
2.289377e-004 
2.292780e-004 
2.296080e-004 
2.299219e-004 
2.302144e-004 
2.304812e-004 
2.307188e-004 
2.309242e-004 
2.310952e-004 
2.312304e-004 
2.313288e-004 
2.313903e-004 
2.314151e-004 
2.314040e-004 
2.313581e-004 
2.312792e-004 
2.311690e-004 
2.310299e-004 
2.308642e-004 
2.306745e-004 
2.304636e-004 
2.302343e-004 
2.299896e-004 
2.297324e-004 
2.294657e-004 
2.291922e-004 
2.289147e-004 
2.286360e-004 
2.283586e-004 
2.280849e-004 
2.278171e-004 
2.275572e-004 
2.273069e-004 
2.270679e-004 
2.268414e-004 
2.266285e-004 
2.264300e-004 
2.262464e-004 
2.260780e-004 
2.259249e-004 
2.257867e-004 
2.256630e-004 
2.255530e-004 
2.254557e-004 
2.253700e-004 
2.252944e-004 
2.252274e-004 
2.251671e-004 
2.251116e-004 
2.250590e-004 
2.250070e-004 
2.249534e-004 
2.248960e-004 
2.248324e-004 
2.247603e-004 
2.246775e-004 
2.245816e-004 
2.244705e-004 
2.243421e-004 
2.241945e-004 
2.240259e-004 
2.238347e-004 
2.236194e-004 
2.233789e-004 
2.231122e-004 
2.228184e-004 
2.224973e-004 
2.221485e-004 
2.217722e-004 
2.213688e-004 
2.209389e-004 
2.204836e-004 
2.200041e-004 
2.195020e-004 
2.189792e-004 
2.184378e-004 
2.178803e-004 
2.173092e-004 
2.167274e-004 
2.161381e-004 
2.155445e-004 
2.149501e-004 
2.143584e-004 
2.137731e-004 
2.131979e-004 
2.126366e-004 
2.120930e-004 
2.115708e-004 
2.110737e-004 
2.106052e-004 
2.101687e-004 
2.097675e-004 
2.094045e-004 
2.090825e-004 
2.088039e-004 
2.085706e-004 
2.083845e-004 
2.082468e-004 
2.081582e-004 
2.081191e-004 
2.081292e-004 
2.081879e-004 
2.082936e-004 
2.084444e-004 
2.086378e-004 
2.088703e-004 
2.091380e-004 
2.094364e-004 
2.097600e-004 
2.101031e-004 
2.104591e-004 
2.108209e-004 
2.111812e-004 
2.115320e-004 
2.118640e-004 
2.121693e-004 
2.124398e-004 
2.126662e-004 
2.128435e-004 
1.000000e+000 
1.000000e+000 
2.262606e-004 
2.265523e-004 
2.268644e-004 
2.271934e-004 
2.275350e-004 
2.278844e-004 
2.282355e-004 
2.285823e-004 
2.289194e-004 
2.292417e-004 
2.295443e-004 
2.298233e-004 
2.300752e-004 
2.302969e-004 
2.304862e-004 
2.306414e-004 
2.307614e-004 
2.308457e-004 
2.308942e-004 
2.309074e-004 
2.308862e-004 
2.308319e-004 
2.307461e-004 
2.306308e-004 
2.304881e-004 
2.303206e-004 
2.301306e-004 
2.299210e-004 
2.296945e-004 
2.294541e-004 
2.292024e-004 
2.289425e-004 
2.286770e-004 
2.284086e-004 
2.281401e-004 
2.278738e-004 
2.276120e-004 
2.273569e-004 
2.271105e-004 
2.268743e-004 
2.266500e-004 
2.264387e-004 
2.262416e-004 
2.260592e-004 
2.258922e-004 
2.257407e-004 
2.256047e-004 
2.254840e-004 
2.253779e-004 
2.252858e-004 
2.252067e-004 
2.251392e-004 
2.250821e-004 
2.250336e-004 
2.249920e-004 
2.249555e-004 
2.249219e-004 
2.248890e-004 
2.248547e-004 
2.248167e-004 
2.247727e-004 
2.247203e-004 
2.246572e-004 
2.245812e-004 
2.244902e-004 
2.243820e-004 
2.242547e-004 
2.241066e-004 
2.239359e-004 
2.237412e-004 
2.235214e-004 
2.232754e-004 
2.230025e-004 
2.227022e-004 
2.223743e-004 
2.220189e-004 
2.216363e-004 
2.212271e-004 
2.207924e-004 
2.203333e-004 
2.198514e-004 
2.193484e-004 
2.188266e-004 
2.182882e-004 
2.177357e-004 
2.171721e-004 
2.166003e-004 
2.160235e-004 
2.154451e-004 
2.148685e-004 
2.142975e-004 
2.137355e-004 
2.131863e-004 
2.126535e-004 
2.121409e-004 
2.116520e-004 
2.111903e-004 
2.107590e-004 
2.103614e-004 
2.100004e-004 
2.096786e-004 
2.093984e-004 
2.091618e-004 
2.089706e-004 
2.088259e-004 
2.087286e-004 
2.086791e-004 
2.086773e-004 
2.087225e-004 
2.088135e-004 
2.089487e-004 
2.091257e-004 
2.093416e-004 
2.095930e-004 
2.098758e-004 
2.101855e-004 
2.105170e-004 
2.108648e-004 
2.112230e-004 
2.115853e-004 
2.119453e-004 
2.122966e-004 
2.126322e-004 
2.129472e-004 
2.132369e-004 
2.134976e-004 
1.000000e+000 
1.000000e+000 
2.256105e-004 
2.259875e-004 
2.263668e-004 
2.267470e-004 
2.271268e-004 
2.275030e-004 
2.278714e-004 
2.282281e-004 
2.285691e-004 
2.288902e-004 
2.291881e-004 
2.294596e-004 
2.297018e-004 
2.299127e-004 
2.300905e-004 
2.302340e-004 
2.303425e-004 
2.304158e-004 
2.304542e-004 
2.304582e-004 
2.304291e-004 
2.303681e-004 
2.302769e-004 
2.301576e-004 
2.300124e-004 
2.298437e-004 
2.296540e-004 
2.294461e-004 
2.292226e-004 
2.289863e-004 
2.287401e-004 
2.284867e-004 
2.282288e-004 
2.279691e-004 
2.277101e-004 
2.274542e-004 
2.272036e-004 
2.269605e-004 
2.267265e-004 
2.265035e-004 
2.262928e-004 
2.260957e-004 
2.259130e-004 
2.257456e-004 
2.255937e-004 
2.254577e-004 
2.253374e-004 
2.252325e-004 
2.251426e-004 
2.250667e-004 
2.250039e-004 
2.249528e-004 
2.249122e-004 
2.248803e-004 
2.248554e-004 
2.248356e-004 
2.248187e-004 
2.248027e-004 
2.247853e-004 
2.247642e-004 
2.247372e-004 
2.247018e-004 
2.246558e-004 
2.245970e-004 
2.245231e-004 
2.244322e-004 
2.243222e-004 
2.241914e-004 
2.240381e-004 
2.238609e-004 
2.236586e-004 
2.234302e-004 
2.231748e-004 
2.228921e-004 
2.225818e-004 
2.222438e-004 
2.218787e-004 
2.214869e-004 
2.210694e-004 
2.206275e-004 
2.201625e-004 
2.196763e-004 
2.191709e-004 
2.186486e-004 
2.181119e-004 
2.175636e-004 
2.170066e-004 
2.164441e-004 
2.158793e-004 
2.153157e-004 
2.147568e-004 
2.142062e-004 
2.136674e-004 
2.131441e-004 
2.126399e-004 
2.121583e-004 
2.117027e-004 
2.112763e-004 
2.108823e-004 
2.105235e-004 
2.102025e-004 
2.099217e-004 
2.096831e-004 
2.094884e-004 
2.093389e-004 
2.092354e-004 
2.091785e-004 
2.091680e-004 
2.092037e-004 
2.092843e-004 
2.094086e-004 
2.095745e-004 
2.097795e-004 
2.100206e-004 
2.102945e-004 
2.105971e-004 
2.109243e-004 
2.112714e-004 
2.116337e-004 
2.120060e-004 
2.123832e-004 
2.127607e-004 
2.131339e-004 
2.134989e-004 
2.138546e-004 
2.141994e-004 
1.000000e+000 
1.000000e+000 
2.249455e-004 
2.254055e-004 
2.258528e-004 
2.262874e-004 
2.267096e-004 
2.271176e-004 
2.275091e-004 
2.278816e-004 
2.282321e-004 
2.285579e-004 
2.288565e-004 
2.291255e-004 
2.293631e-004 
2.295677e-004 
2.297381e-004 
2.298736e-004 
2.299740e-004 
2.300394e-004 
2.300703e-004 
2.300675e-004 
2.300324e-004 
2.299664e-004 
2.298713e-004 
2.297493e-004 
2.296025e-004 
2.294334e-004 
2.292445e-004 
2.290385e-004 
2.288182e-004 
2.285862e-004 
2.283453e-004 
2.280982e-004 
2.278477e-004 
2.275962e-004 
2.273462e-004 
2.271001e-004 
2.268600e-004 
2.266279e-004 
2.264057e-004 
2.261948e-004 
2.259968e-004 
2.258126e-004 
2.256433e-004 
2.254895e-004 
2.253515e-004 
2.252295e-004 
2.251235e-004 
2.250330e-004 
2.249575e-004 
2.248961e-004 
2.248478e-004 
2.248114e-004 
2.247854e-004 
2.247681e-004 
2.247578e-004 
2.247526e-004 
2.247503e-004 
2.247488e-004 
2.247459e-004 
2.247393e-004 
2.247266e-004 
2.247057e-004 
2.246741e-004 
2.246296e-004 
2.245701e-004 
2.244935e-004 
2.243979e-004 
2.242815e-004 
2.241425e-004 
2.239797e-004 
2.237917e-004 
2.235776e-004 
2.233366e-004 
2.230682e-004 
2.227722e-004 
2.224485e-004 
2.220976e-004 
2.217200e-004 
2.213166e-004 
2.208886e-004 
2.204374e-004 
2.199649e-004 
2.194729e-004 
2.189638e-004 
2.184400e-004 
2.179043e-004 
2.173595e-004 
2.168088e-004 
2.162553e-004 
2.157025e-004 
2.151539e-004 
2.146128e-004 
2.140829e-004 
2.135677e-004 
2.130708e-004 
2.125956e-004 
2.121455e-004 
2.117236e-004 
2.113331e-004 
2.109767e-004 
2.106571e-004 
2.103766e-004 
2.101372e-004 
2.099407e-004 
2.097883e-004 
2.096809e-004 
2.096193e-004 
2.096034e-004 
2.096329e-004 
2.097071e-004 
2.098248e-004 
2.099844e-004 
2.101836e-004 
2.104200e-004 
2.106907e-004 
2.109924e-004 
2.113215e-004 
2.116744e-004 
2.120471e-004 
2.124357e-004 
2.128364e-004 
2.132456e-004 
2.136606e-004 
2.140792e-004 
2.145015e-004 
2.149277e-004 
1.000000e+000 
1.000000e+000 
2.242821e-004 
2.248220e-004 
2.253366e-004 
2.258270e-004 
2.262942e-004 
2.267377e-004 
2.271566e-004 
2.275493e-004 
2.279141e-004 
2.282493e-004 
2.285531e-004 
2.288243e-004 
2.290614e-004 
2.292636e-004 
2.294303e-004 
2.295613e-004 
2.296567e-004 
2.297169e-004 
2.297427e-004 
2.297353e-004 
2.296961e-004 
2.296268e-004 
2.295292e-004 
2.294056e-004 
2.292581e-004 
2.290894e-004 
2.289019e-004 
2.286983e-004 
2.284814e-004 
2.282537e-004 
2.280182e-004 
2.277773e-004 
2.275337e-004 
2.272900e-004 
2.270486e-004 
2.268117e-004 
2.265814e-004 
2.263596e-004 
2.261482e-004 
2.259486e-004 
2.257622e-004 
2.255900e-004 
2.254329e-004 
2.252914e-004 
2.251660e-004 
2.250567e-004 
2.249635e-004 
2.248858e-004 
2.248232e-004 
2.247747e-004 
2.247393e-004 
2.247156e-004 
2.247023e-004 
2.246977e-004 
2.246999e-004 
2.247071e-004 
2.247172e-004 
2.247279e-004 
2.247372e-004 
2.247426e-004 
2.247419e-004 
2.247327e-004 
2.247129e-004 
2.246801e-004 
2.246322e-004 
2.245671e-004 
2.244829e-004 
2.243778e-004 
2.242502e-004 
2.240987e-004 
2.239220e-004 
2.237191e-004 
2.234893e-004 
2.232320e-004 
2.229471e-004 
2.226345e-004 
2.222946e-004 
2.219280e-004 
2.215355e-004 
2.211184e-004 
2.206780e-004 
2.202161e-004 
2.197346e-004 
2.192359e-004 
2.187222e-004 
2.181965e-004 
2.176614e-004 
2.171201e-004 
2.165757e-004 
2.160316e-004 
2.154912e-004 
2.149579e-004 
2.144353e-004 
2.139269e-004 
2.134362e-004 
2.129665e-004 
2.125212e-004 
2.121035e-004 
2.117164e-004 
2.113627e-004 
2.110450e-004 
2.107656e-004 
2.105266e-004 
2.103297e-004 
2.101762e-004 
2.100671e-004 
2.100033e-004 
2.099847e-004 
2.100115e-004 
2.100828e-004 
2.101979e-004 
2.103553e-004 
2.105533e-004 
2.107898e-004 
2.110624e-004 
2.113685e-004 
2.117050e-004 
2.120691e-004 
2.124576e-004 
2.128675e-004 
2.132962e-004 
2.137411e-004 
2.142007e-004 
2.146741e-004 
2.151623e-004 
2.156662e-004 
1.000000e+000 
1.000000e+000 
2.236336e-004 
2.242500e-004 
2.248307e-004 
2.253769e-004 
2.258905e-004 
2.263719e-004 
2.268212e-004 
2.272376e-004 
2.276205e-004 
2.279689e-004 
2.282819e-004 
2.285589e-004 
2.287993e-004 
2.290026e-004 
2.291689e-004 
2.292984e-004 
2.293915e-004 
2.294491e-004 
2.294722e-004 
2.294622e-004 
2.294207e-004 
2.293496e-004 
2.292508e-004 
2.291267e-004 
2.289796e-004 
2.288120e-004 
2.286265e-004 
2.284257e-004 
2.282124e-004 
2.279892e-004 
2.277589e-004 
2.275241e-004 
2.272873e-004 
2.270511e-004 
2.268177e-004 
2.265894e-004 
2.263683e-004 
2.261561e-004 
2.259547e-004 
2.257655e-004 
2.255897e-004 
2.254283e-004 
2.252823e-004 
2.251520e-004 
2.250379e-004 
2.249400e-004 
2.248581e-004 
2.247918e-004 
2.247404e-004 
2.247031e-004 
2.246788e-004 
2.246661e-004 
2.246637e-004 
2.246697e-004 
2.246825e-004 
2.247000e-004 
2.247202e-004 
2.247410e-004 
2.247600e-004 
2.247750e-004 
2.247838e-004 
2.247839e-004 
2.247732e-004 
2.247494e-004 
2.247103e-004 
2.246539e-004 
2.245783e-004 
2.244817e-004 
2.243625e-004 
2.242192e-004 
2.240507e-004 
2.238559e-004 
2.236342e-004 
2.233850e-004 
2.231080e-004 
2.228034e-004 
2.224714e-004 
2.221127e-004 
2.217281e-004 
2.213187e-004 
2.208861e-004 
2.204319e-004 
2.199581e-004 
2.194669e-004 
2.189607e-004 
2.184423e-004 
2.179144e-004 
2.173802e-004 
2.168426e-004 
2.163052e-004 
2.157711e-004 
2.152440e-004 
2.147272e-004 
2.142243e-004 
2.137386e-004 
2.132736e-004 
2.128326e-004 
2.124186e-004 
2.120348e-004 
2.116840e-004 
2.113686e-004 
2.110910e-004 
2.108534e-004 
2.106574e-004 
2.105045e-004 
2.103957e-004 
2.103319e-004 
2.103134e-004 
2.103402e-004 
2.104120e-004 
2.105279e-004 
2.106870e-004 
2.108879e-004 
2.111288e-004 
2.114078e-004 
2.117227e-004 
2.120712e-004 
2.124509e-004 
2.128596e-004 
2.132949e-004 
2.137549e-004 
2.142382e-004 
2.147440e-004 
2.152722e-004 
2.158245e-004 
2.164023e-004 
1.000000e+000 
1.000000e+000 
2.230112e-004 
2.237008e-004 
2.243454e-004 
2.249469e-004 
2.255075e-004 
2.260284e-004 
2.265101e-004 
2.269529e-004 
2.273567e-004 
2.277214e-004 
2.280469e-004 
2.283329e-004 
2.285796e-004 
2.287871e-004 
2.289558e-004 
2.290865e-004 
2.291799e-004 
2.292371e-004 
2.292596e-004 
2.292489e-004 
2.292068e-004 
2.291353e-004 
2.290367e-004 
2.289132e-004 
2.287673e-004 
2.286015e-004 
2.284185e-004 
2.282209e-004 
2.280115e-004 
2.277930e-004 
2.275680e-004 
2.273391e-004 
2.271088e-004 
2.268797e-004 
2.266539e-004 
2.264338e-004 
2.262211e-004 
2.260179e-004 
2.258257e-004 
2.256459e-004 
2.254798e-004 
2.253283e-004 
2.251922e-004 
2.250719e-004 
2.249678e-004 
2.248799e-004 
2.248080e-004 
2.247515e-004 
2.247099e-004 
2.246821e-004 
2.246672e-004 
2.246637e-004 
2.246702e-004 
2.246850e-004 
2.247063e-004 
2.247321e-004 
2.247603e-004 
2.247888e-004 
2.248153e-004 
2.248376e-004 
2.248533e-004 
2.248602e-004 
2.248560e-004 
2.248385e-004 
2.248055e-004 
2.247551e-004 
2.246852e-004 
2.245942e-004 
2.244804e-004 
2.243424e-004 
2.241791e-004 
2.239895e-004 
2.237728e-004 
2.235285e-004 
2.232565e-004 
2.229567e-004 
2.226296e-004 
2.222757e-004 
2.218959e-004 
2.214914e-004 
2.210636e-004 
2.206142e-004 
2.201452e-004 
2.196588e-004 
2.191575e-004 
2.186439e-004 
2.181208e-004 
2.175913e-004 
2.170584e-004 
2.165256e-004 
2.159961e-004 
2.154734e-004 
2.149609e-004 
2.144621e-004 
2.139804e-004 
2.135192e-004 
2.130817e-004 
2.126712e-004 
2.122905e-004 
2.119426e-004 
2.116299e-004 
2.113548e-004 
2.111195e-004 
2.109256e-004 
2.107748e-004 
2.106681e-004 
2.106065e-004 
2.105903e-004 
2.106199e-004 
2.106949e-004 
2.108149e-004 
2.109791e-004 
2.111864e-004 
2.114354e-004 
2.117246e-004 
2.120523e-004 
2.124166e-004 
2.128157e-004 
2.132479e-004 
2.137116e-004 
2.142055e-004 
2.147288e-004 
2.152814e-004 
2.158637e-004 
2.164779e-004 
2.171255e-004 
1.000000e+000 
1.000000e+000 
2.224244e-004 
2.231835e-004 
2.238900e-004 
2.245457e-004 
2.251534e-004 
2.257144e-004 
2.262300e-004 
2.267010e-004 
2.271281e-004 
2.275116e-004 
2.278520e-004 
2.281497e-004 
2.284054e-004 
2.286196e-004 
2.287933e-004 
2.289275e-004 
2.290234e-004 
2.290823e-004 
2.291061e-004 
2.290964e-004 
2.290552e-004 
2.289848e-004 
2.288874e-004 
2.287655e-004 
2.286217e-004 
2.284584e-004 
2.282785e-004 
2.280845e-004 
2.278793e-004 
2.276655e-004 
2.274458e-004 
2.272227e-004 
2.269988e-004 
2.267765e-004 
2.265579e-004 
2.263453e-004 
2.261406e-004 
2.259456e-004 
2.257618e-004 
2.255906e-004 
2.254332e-004 
2.252906e-004 
2.251633e-004 
2.250519e-004 
2.249566e-004 
2.248773e-004 
2.248139e-004 
2.247658e-004 
2.247324e-004 
2.247126e-004 
2.247054e-004 
2.247093e-004 
2.247229e-004 
2.247446e-004 
2.247723e-004 
2.248043e-004 
2.248384e-004 
2.248724e-004 
2.249041e-004 
2.249312e-004 
2.249515e-004 
2.249627e-004 
2.249624e-004 
2.249486e-004 
2.249190e-004 
2.248717e-004 
2.248048e-004 
2.247165e-004 
2.246052e-004 
2.244697e-004 
2.243086e-004 
2.241211e-004 
2.239064e-004 
2.236640e-004 
2.233939e-004 
2.230960e-004 
2.227707e-004 
2.224186e-004 
2.220406e-004 
2.216380e-004 
2.212121e-004 
2.207647e-004 
2.202978e-004 
2.198136e-004 
2.193145e-004 
2.188032e-004 
2.182825e-004 
2.177554e-004 
2.172251e-004 
2.166949e-004 
2.161681e-004 
2.156481e-004 
2.151384e-004 
2.146425e-004 
2.141637e-004 
2.137054e-004 
2.132708e-004 
2.128632e-004 
2.124855e-004 
2.121405e-004 
2.118308e-004 
2.115587e-004 
2.113265e-004 
2.111359e-004 
2.109885e-004 
2.108855e-004 
2.108279e-004 
2.108162e-004 
2.108508e-004 
2.109318e-004 
2.110587e-004 
2.112309e-004 
2.114478e-004 
2.117082e-004 
2.120109e-004 
2.123546e-004 
2.127379e-004 
2.131594e-004 
2.136179e-004 
2.141123e-004 
2.146418e-004 
2.152061e-004 
2.158055e-004 
2.164408e-004 
2.171143e-004 
2.178278e-004 
1.000000e+000 
1.000000e+000 
2.218810e-004 
2.227064e-004 
2.234724e-004 
2.241811e-004 
2.248353e-004 
2.254367e-004 
2.259871e-004 
2.264877e-004 
2.269396e-004 
2.273438e-004 