# vtk DataFile Version 2.0
2D-ADE data file 
ASCII
DATASET RECTILINEAR_GRID
DIMENSIONS 128 128 1
X_COORDINATES 128 int
0 1 2 3 4 5 6 7 8 9 10 11 12 13 14 15 16 17 18 19 20 21 22 23 24 25 26 27 28 29 30 31 32 33 34 35 36 37 38 39 40 41 42 43 44 45 46 47 48 49 50 51 52 53 54 55 56 57 58 59 60 61 62 63 64 65 66 67 68 69 70 71 72 73 74 75 76 77 78 79 80 81 82 83 84 85 86 87 88 89 90 91 92 93 94 95 96 97 98 99 100 101 102 103 104 105 106 107 108 109 110 111 112 113 114 115 116 117 118 119 120 121 122 123 124 125 126 127 
Y_COORDINATES 128 int
0 1 2 3 4 5 6 7 8 9 10 11 12 13 14 15 16 17 18 19 20 21 22 23 24 25 26 27 28 29 30 31 32 33 34 35 36 37 38 39 40 41 42 43 44 45 46 47 48 49 50 51 52 53 54 55 56 57 58 59 60 61 62 63 64 65 66 67 68 69 70 71 72 73 74 75 76 77 78 79 80 81 82 83 84 85 86 87 88 89 90 91 92 93 94 95 96 97 98 99 100 101 102 103 104 105 106 107 108 109 110 111 112 113 114 115 116 117 118 119 120 121 122 123 124 125 126 127 
Z_COORDINATES 1 int
0
POINT_DATA 16384 
SCALARS density double 1
LOOKUP_TABLE default
1.000000e+000 
1.000000e+000 
1.000000e+000 
1.000000e+000 
1.000000e+000 
1.000000e+000 
1.000000e+000 
1.000000e+000 
1.000000e+000 
1.000000e+000 
1.000000e+000 
1.000000e+000 
1.000000e+000 
1.000000e+000 
1.000000e+000 
1.000000e+000 
1.000000e+000 
1.000000e+000 
1.000000e+000 
1.000000e+000 
1.000000e+000 
1.000000e+000 
1.000000e+000 
1.000000e+000 
1.000000e+000 
1.000000e+000 
1.000000e+000 
1.000000e+000 
1.000000e+000 
1.000000e+000 
1.000000e+000 
1.000000e+000 
1.000000e+000 
1.000000e+000 
1.000000e+000 
1.000000e+000 
1.000000e+000 
1.000000e+000 
1.000000e+000 
1.000000e+000 
1.000000e+000 
1.000000e+000 
1.000000e+000 
1.000000e+000 
1.000000e+000 
1.000000e+000 
1.000000e+000 
1.000000e+000 
1.000000e+000 
1.000000e+000 
1.000000e+000 
1.000000e+000 
1.000000e+000 
1.000000e+000 
1.000000e+000 
1.000000e+000 
1.000000e+000 
1.000000e+000 
1.000000e+000 
1.000000e+000 
1.000000e+000 
1.000000e+000 
1.000000e+000 
1.000000e+000 
1.000000e+000 
1.000000e+000 
1.000000e+000 
1.000000e+000 
1.000000e+000 
1.000000e+000 
1.000000e+000 
1.000000e+000 
1.000000e+000 
1.000000e+000 
1.000000e+000 
1.000000e+000 
1.000000e+000 
1.000000e+000 
1.000000e+000 
1.000000e+000 
1.000000e+000 
1.000000e+000 
1.000000e+000 
1.000000e+000 
1.000000e+000 
1.000000e+000 
1.000000e+000 
1.000000e+000 
1.000000e+000 
1.000000e+000 
1.000000e+000 
1.000000e+000 
1.000000e+000 
1.000000e+000 
1.000000e+000 
1.000000e+000 
1.000000e+000 
1.000000e+000 
1.000000e+000 
1.000000e+000 
1.000000e+000 
1.000000e+000 
1.000000e+000 
1.000000e+000 
1.000000e+000 
1.000000e+000 
1.000000e+000 
1.000000e+000 
1.000000e+000 
1.000000e+000 
1.000000e+000 
1.000000e+000 
1.000000e+000 
1.000000e+000 
1.000000e+000 
1.000000e+000 
1.000000e+000 
1.000000e+000 
1.000000e+000 
1.000000e+000 
1.000000e+000 
1.000000e+000 
1.000000e+000 
1.000000e+000 
1.000000e+000 
1.000000e+000 
1.000000e+000 
1.000000e+000 
1.000000e+000 
3.071073e-004 
3.070175e-004 
3.071018e-004 
3.074325e-004 
3.080237e-004 
3.088342e-004 
3.098222e-004 
3.109511e-004 
3.121875e-004 
3.135012e-004 
3.148651e-004 
3.162558e-004 
3.176529e-004 
3.190386e-004 
3.203977e-004 
3.217170e-004 
3.229853e-004 
3.241932e-004 
3.253325e-004 
3.263964e-004 
3.273794e-004 
3.282767e-004 
3.290844e-004 
3.297994e-004 
3.304191e-004 
3.309415e-004 
3.313648e-004 
3.316879e-004 
3.319096e-004 
3.320293e-004 
3.320464e-004 
3.319603e-004 
3.317709e-004 
3.314780e-004 
3.310814e-004 
3.305811e-004 
3.299772e-004 
3.292699e-004 
3.284593e-004 
3.275458e-004 
3.265297e-004 
3.254116e-004 
3.241921e-004 
3.228720e-004 
3.214523e-004 
3.199341e-004 
3.183188e-004 
3.166080e-004 
3.148034e-004 
3.129072e-004 
3.109218e-004 
3.088499e-004 
3.066945e-004 
3.044590e-004 
3.021471e-004 
2.997630e-004 
2.973111e-004 
2.947964e-004 
2.922240e-004 
2.895997e-004 
2.869295e-004 
2.842199e-004 
2.814777e-004 
2.787101e-004 
2.759245e-004 
2.731290e-004 
2.703316e-004 
2.675407e-004 
2.647651e-004 
2.620136e-004 
2.592953e-004 
2.566193e-004 
2.539949e-004 
2.514313e-004 
2.489378e-004 
2.465236e-004 
2.441976e-004 
2.419686e-004 
2.398453e-004 
2.378359e-004 
2.359483e-004 
2.341898e-004 
2.325675e-004 
2.310878e-004 
2.297563e-004 
2.285782e-004 
2.275580e-004 
2.266992e-004 
2.260048e-004 
2.254766e-004 
2.251158e-004 
2.249227e-004 
2.248966e-004 
2.250357e-004 
2.253374e-004 
2.257981e-004 
2.264134e-004 
2.271775e-004 
2.280841e-004 
2.291256e-004 
2.302937e-004 
2.315790e-004 
2.329713e-004 
2.344596e-004 
2.360318e-004 
2.376753e-004 
2.393764e-004 
2.411208e-004 
2.428934e-004 
2.446783e-004 
2.464591e-004 
2.482185e-004 
2.499385e-004 
2.516005e-004 
2.531854e-004 
2.546732e-004 
2.560436e-004 
2.572758e-004 
2.583492e-004 
2.592432e-004 
2.599396e-004 
2.604223e-004 
2.606793e-004 
2.607131e-004 
2.606024e-004 
2.604490e-004 
1.000000e+000 
1.000000e+000 
3.071972e-004 
3.071073e-004 
3.072082e-004 
3.075313e-004 
3.080609e-004 
3.087801e-004 
3.096606e-004 
3.106724e-004 
3.117863e-004 
3.129758e-004 
3.142167e-004 
3.154875e-004 
3.167691e-004 
3.180448e-004 
3.192999e-004 
3.205218e-004 
3.216994e-004 
3.228234e-004 
3.238856e-004 
3.248793e-004 
3.257986e-004 
3.266387e-004 
3.273955e-004 
3.280656e-004 
3.286463e-004 
3.291352e-004 
3.295305e-004 
3.298307e-004 
3.300347e-004 
3.301413e-004 
3.301500e-004 
3.300602e-004 
3.298714e-004 
3.295833e-004 
3.291957e-004 
3.287086e-004 
3.281219e-004 
3.274358e-004 
3.266504e-004 
3.257659e-004 
3.247829e-004 
3.237017e-004 
3.225230e-004 
3.212477e-004 
3.198766e-004 
3.184109e-004 
3.168520e-004 
3.152015e-004 
3.134610e-004 
3.116328e-004 
3.097192e-004 
3.077228e-004 
3.056467e-004 
3.034940e-004 
3.012685e-004 
2.989741e-004 
2.966152e-004 
2.941966e-004 
2.917233e-004 
2.892008e-004 
2.866350e-004 
2.840320e-004 
2.813984e-004 
2.787411e-004 
2.760674e-004 
2.733847e-004 
2.707009e-004 
2.680241e-004 
2.653626e-004 
2.627247e-004 
2.601192e-004 
2.575548e-004 
2.550403e-004 
2.525845e-004 
2.501962e-004 
2.478840e-004 
2.456566e-004 
2.435222e-004 
2.414891e-004 
2.395650e-004 
2.377573e-004 
2.360731e-004 
2.345189e-004 
2.331006e-004 
2.318238e-004 
2.306932e-004 
2.297128e-004 
2.288862e-004 
2.282157e-004 
2.277034e-004 
2.273500e-004 
2.271557e-004 
2.271198e-004 
2.272405e-004 
2.275151e-004 
2.279402e-004 
2.285114e-004 
2.292231e-004 
2.300691e-004 
2.310422e-004 
2.321343e-004 
2.333363e-004 
2.346386e-004 
2.360305e-004 
2.375004e-004 
2.390362e-004 
2.406250e-004 
2.422531e-004 
2.439060e-004 
2.455689e-004 
2.472260e-004 
2.488611e-004 
2.504574e-004 
2.519976e-004 
2.534639e-004 
2.548381e-004 
2.561019e-004 
2.572371e-004 
2.582256e-004 
2.590507e-004 
2.596974e-004 
2.601549e-004 
2.604215e-004 
2.605086e-004 
2.604489e-004 
2.602956e-004 
1.000000e+000 
1.000000e+000 
3.071130e-004 
3.070061e-004 
3.071072e-004 
3.074175e-004 
3.079083e-004 
3.085674e-004 
3.093708e-004 
3.102935e-004 
3.113108e-004 
3.123999e-004 
3.135390e-004 
3.147087e-004 
3.158915e-004 
3.170717e-004 
3.182355e-004 
3.193708e-004 
3.204671e-004 
3.215153e-004 
3.225073e-004 
3.234366e-004 
3.242971e-004 
3.250841e-004 
3.257934e-004 
3.264215e-004 
3.269654e-004 
3.274228e-004 
3.277916e-004 
3.280702e-004 
3.282573e-004 
3.283517e-004 
3.283527e-004 
3.282595e-004 
3.280716e-004 
3.277886e-004 
3.274102e-004 
3.269362e-004 
3.263667e-004 
3.257016e-004 
3.249410e-004 
3.240853e-004 
3.231348e-004 
3.220899e-004 
3.209512e-004 
3.197197e-004 
3.183961e-004 
3.169816e-004 
3.154775e-004 
3.138854e-004 
3.122071e-004 
3.104445e-004 
3.086000e-004 
3.066762e-004 
3.046760e-004 
3.026025e-004 
3.004594e-004 
2.982504e-004 
2.959798e-004 
2.936522e-004 
2.912726e-004 
2.888461e-004 
2.863784e-004 
2.838755e-004 
2.813437e-004 
2.787896e-004 
2.762202e-004 
2.736427e-004 
2.710646e-004 
2.684936e-004 
2.659377e-004 
2.634049e-004 
2.609036e-004 
2.584421e-004 
2.560287e-004 
2.536720e-004 
2.513802e-004 
2.491616e-004 
2.470245e-004 
2.449767e-004 
2.430261e-004 
2.411799e-004 
2.394452e-004 
2.378287e-004 
2.363366e-004 
2.349746e-004 
2.337477e-004 
2.326604e-004 
2.317166e-004 
2.309194e-004 
2.302713e-004 
2.297737e-004 
2.294276e-004 
2.292330e-004 
2.291889e-004 
2.292937e-004 
2.295448e-004 
2.299386e-004 
2.304709e-004 
2.311364e-004 
2.319289e-004 
2.328416e-004 
2.338665e-004 
2.349950e-004 
2.362178e-004 
2.375245e-004 
2.389042e-004 
2.403452e-004 
2.418351e-004 
2.433610e-004 
2.449092e-004 
2.464654e-004 
2.480148e-004 
2.495423e-004 
2.510320e-004 
2.524679e-004 
2.538335e-004 
2.551123e-004 
2.562877e-004 
2.573434e-004 
2.582638e-004 
2.590346e-004 
2.596435e-004 
2.600818e-004 
2.603472e-004 
2.604495e-004 
2.603891e-004 
2.601841e-004 
1.000000e+000 
1.000000e+000 
3.067812e-004 
3.066817e-004 
3.067969e-004 
3.071085e-004 
3.075850e-004 
3.082098e-004 
3.089617e-004 
3.098205e-004 
3.107652e-004 
3.117756e-004 
3.128327e-004 
3.139190e-004 
3.150186e-004 
3.161171e-004 
3.172017e-004 
3.182611e-004 
3.192853e-004 
3.202656e-004 
3.211943e-004 
3.220649e-004 
3.228717e-004 
3.236098e-004 
3.242751e-004 
3.248641e-004 
3.253738e-004 
3.258017e-004 
3.261458e-004 
3.264042e-004 
3.265756e-004 
3.266587e-004 
3.266527e-004 
3.265566e-004 
3.263701e-004 
3.260924e-004 
3.257234e-004 
3.252627e-004 
3.247103e-004 
3.240661e-004 
3.233302e-004 
3.225029e-004 
3.215844e-004 
3.205751e-004 
3.194758e-004 
3.182870e-004 
3.170098e-004 
3.156451e-004 
3.141944e-004 
3.126590e-004 
3.110406e-004 
3.093414e-004 
3.075634e-004 
3.057093e-004 
3.037818e-004 
3.017840e-004 
2.997193e-004 
2.975915e-004 
2.954047e-004 
2.931632e-004 
2.908718e-004 
2.885357e-004 
2.861602e-004 
2.837511e-004 
2.813144e-004 
2.788566e-004 
2.763843e-004 
2.739045e-004 
2.714243e-004 
2.689512e-004 
2.664929e-004 
2.640570e-004 
2.616515e-004 
2.592845e-004 
2.569639e-004 
2.546978e-004 
2.524943e-004 
2.503613e-004 
2.483065e-004 
2.463376e-004 
2.444620e-004 
2.426866e-004 
2.410183e-004 
2.394634e-004 
2.380277e-004 
2.367167e-004 
2.355352e-004 
2.344874e-004 
2.335769e-004 
2.328068e-004 
2.321791e-004 
2.316955e-004 
2.313565e-004 
2.311622e-004 
2.311116e-004 
2.312030e-004 
2.314338e-004 
2.318006e-004 
2.322991e-004 
2.329243e-004 
2.336702e-004 
2.345300e-004 
2.354962e-004 
2.365605e-004 
2.377137e-004 
2.389461e-004 
2.402471e-004 
2.416055e-004 
2.430096e-004 
2.444468e-004 
2.459043e-004 
2.473686e-004 
2.488257e-004 
2.502612e-004 
2.516605e-004 
2.530086e-004 
2.542903e-004 
2.554905e-004 
2.565941e-004 
2.575866e-004 
2.584539e-004 
2.591835e-004 
2.597646e-004 
2.601897e-004 
2.604527e-004 
2.605532e-004 
2.604750e-004 
2.602152e-004 
1.000000e+000 
1.000000e+000 
3.061861e-004 
3.061486e-004 
3.063048e-004 
3.066344e-004 
3.071135e-004 
3.077237e-004 
3.084460e-004 
3.092624e-004 
3.101549e-004 
3.111058e-004 
3.120985e-004 
3.131174e-004 
3.141483e-004 
3.151781e-004 
3.161951e-004 
3.171887e-004 
3.181498e-004 
3.190700e-004 
3.199422e-004 
3.207601e-004 
3.215182e-004 
3.222118e-004 
3.228369e-004 
3.233900e-004 
3.238681e-004 
3.242688e-004 
3.245900e-004 
3.248298e-004 
3.249868e-004 
3.250597e-004 
3.250475e-004 
3.249494e-004 
3.247648e-004 
3.244929e-004 
3.241335e-004 
3.236863e-004 
3.231511e-004 
3.225277e-004 
3.218164e-004 
3.210171e-004 
3.201302e-004 
3.191560e-004 
3.180952e-004 
3.169483e-004 
3.157164e-004 
3.144003e-004 
3.130013e-004 
3.115208e-004 
3.099605e-004 
3.083224e-004 
3.066084e-004 
3.048211e-004 
3.029632e-004 
3.010376e-004 
2.990476e-004 
2.969969e-004 
2.948894e-004 
2.927293e-004 
2.905213e-004 
2.882701e-004 
2.859811e-004 
2.836597e-004 
2.813119e-004 
2.789437e-004 
2.765617e-004 
2.741724e-004 
2.717828e-004 
2.694002e-004 
2.670317e-004 
2.646849e-004 
2.623674e-004 
2.600869e-004 
2.578511e-004 
2.556678e-004 
2.535448e-004 
2.514896e-004 
2.495097e-004 
2.476124e-004 
2.458048e-004 
2.440936e-004 
2.424854e-004 
2.409862e-004 
2.396016e-004 
2.383368e-004 
2.371964e-004 
2.361844e-004 
2.353043e-004 
2.345588e-004 
2.339500e-004 
2.334794e-004 
2.331475e-004 
2.329541e-004 
2.328985e-004 
2.329787e-004 
2.331924e-004 
2.335361e-004 
2.340057e-004 
2.345961e-004 
2.353017e-004 
2.361159e-004 
2.370314e-004 
2.380401e-004 
2.391333e-004 
2.403015e-004 
2.415346e-004 
2.428219e-004 
2.441521e-004 
2.455134e-004 
2.468935e-004 
2.482795e-004 
2.496584e-004 
2.510165e-004 
2.523403e-004 
2.536156e-004 
2.548286e-004 
2.559653e-004 
2.570119e-004 
2.579551e-004 
2.587825e-004 
2.594823e-004 
2.600442e-004 
2.604600e-004 
2.607208e-004 
2.608195e-004 
2.607387e-004 
2.604660e-004 
1.000000e+000 
1.000000e+000 
3.053664e-004 
3.054218e-004 
3.056415e-004 
3.060106e-004 
3.065109e-004 
3.071250e-004 
3.078363e-004 
3.086288e-004 
3.094869e-004 
3.103953e-004 
3.113395e-004 
3.123057e-004 
3.132812e-004 
3.142544e-004 
3.152145e-004 
3.161521e-004 
3.170586e-004 
3.179264e-004 
3.187487e-004 
3.195197e-004 
3.202342e-004 
3.208877e-004 
3.214764e-004 
3.219968e-004 
3.224463e-004 
3.228222e-004 
3.231225e-004 
3.233455e-004 
3.234895e-004 
3.235535e-004 
3.235363e-004 
3.234369e-004 
3.232548e-004 
3.229894e-004 
3.226400e-004 
3.222065e-004 
3.216886e-004 
3.210862e-004 
3.203991e-004 
3.196277e-004 
3.187720e-004 
3.178324e-004 
3.168094e-004 
3.157036e-004 
3.145158e-004 
3.132470e-004 
3.118983e-004 
3.104711e-004 
3.089669e-004 
3.073876e-004 
3.057352e-004 
3.040121e-004 
3.022207e-004 
3.003640e-004 
2.984452e-004 
2.964676e-004 
2.944352e-004 
2.923519e-004 
2.902222e-004 
2.880508e-004 
2.858428e-004 
2.836034e-004 
2.813384e-004 
2.790535e-004 
2.767551e-004 
2.744496e-004 
2.721437e-004 
2.698442e-004 
2.675582e-004 
2.652931e-004 
2.630560e-004 
2.608545e-004 
2.586960e-004 
2.565880e-004 
2.545380e-004 
2.525533e-004 
2.506411e-004 
2.488085e-004 
2.470623e-004 
2.454090e-004 
2.438549e-004 
2.424059e-004 
2.410672e-004 
2.398440e-004 
2.387405e-004 
2.377608e-004 
2.369081e-004 
2.361850e-004 
2.355936e-004 
2.351351e-004 
2.348101e-004 
2.346183e-004 
2.345589e-004 
2.346302e-004 
2.348296e-004 
2.351538e-004 
2.355989e-004 
2.361599e-004 
2.368312e-004 
2.376065e-004 
2.384787e-004 
2.394400e-004 
2.404820e-004 
2.415956e-004 
2.427710e-004 
2.439980e-004 
2.452657e-004 
2.465630e-004 
2.478780e-004 
2.491986e-004 
2.505124e-004 
2.518068e-004 
2.530687e-004 
2.542853e-004 
2.554435e-004 
2.565304e-004 
2.575334e-004 
2.584403e-004 
2.592395e-004 
2.599200e-004 
2.604718e-004 
2.608855e-004 
2.611510e-004 
2.612579e-004 
2.611910e-004 
2.609378e-004 
1.000000e+000 
1.000000e+000 
3.043614e-004 
3.045277e-004 
3.048298e-004 
3.052572e-004 
3.057950e-004 
3.064291e-004 
3.071455e-004 
3.079301e-004 
3.087694e-004 
3.096503e-004 
3.105600e-004 
3.114867e-004 
3.124190e-004 
3.133466e-004 
3.142601e-004 
3.151507e-004 
3.160108e-004 
3.168334e-004 
3.176123e-004 
3.183421e-004 
3.190180e-004 
3.196359e-004 
3.201920e-004 
3.206832e-004 
3.211069e-004 
3.214605e-004 
3.217422e-004 
3.219502e-004 
3.220830e-004 
3.221394e-004 
3.221182e-004 
3.220187e-004 
3.218400e-004 
3.215815e-004 
3.212427e-004 
3.208233e-004 
3.203229e-004 
3.197415e-004 
3.190788e-004 
3.183350e-004 
3.175102e-004 
3.166046e-004 
3.156188e-004 
3.145532e-004 
3.134087e-004 
3.121859e-004 
3.108861e-004 
3.095105e-004 
3.080606e-004 
3.065381e-004 
3.049448e-004 
3.032831e-004 
3.015554e-004 
2.997645e-004 
2.979132e-004 
2.960051e-004 
2.940436e-004 
2.920328e-004 
2.899768e-004 
2.878802e-004 
2.857479e-004 
2.835850e-004 
2.813969e-004 
2.791893e-004 
2.769683e-004 
2.747400e-004 
2.725110e-004 
2.702879e-004 
2.680775e-004 
2.658869e-004 
2.637231e-004 
2.615933e-004 
2.595049e-004 
2.574651e-004 
2.554810e-004 
2.535598e-004 
2.517085e-004 
2.499340e-004 
2.482428e-004 
2.466414e-004 
2.451357e-004 
2.437314e-004 
2.424338e-004 
2.412477e-004 
2.401773e-004 
2.392265e-004 
2.383984e-004 
2.376955e-004 
2.371198e-004 
2.366725e-004 
2.363541e-004 
2.361644e-004 
2.361025e-004 
2.361667e-004 
2.363544e-004 
2.366626e-004 
2.370872e-004 
2.376235e-004 
2.382661e-004 
2.390088e-004 
2.398447e-004 
2.407663e-004 
2.417654e-004 
2.428332e-004 
2.439604e-004 
2.451372e-004 
2.463531e-004 
2.475973e-004 
2.488588e-004 
2.501260e-004 
2.513870e-004 
2.526301e-004 
2.538430e-004 
2.550135e-004 
2.561297e-004 
2.571795e-004 
2.581512e-004 
2.590335e-004 
2.598155e-004 
2.604869e-004 
2.610376e-004 
2.614580e-004 
2.617379e-004 
2.618666e-004 
2.618302e-004 
2.616186e-004 
1.000000e+000 
1.000000e+000 
3.032052e-004 
3.034945e-004 
3.038932e-004 
3.043931e-004 
3.049828e-004 
3.056513e-004 
3.063866e-004 
3.071772e-004 
3.080113e-004 
3.088778e-004 
3.097656e-004 
3.106645e-004 
3.115646e-004 
3.124569e-004 
3.133329e-004 
3.141851e-004 
3.150065e-004 
3.157908e-004 
3.165325e-004 
3.172267e-004 
3.178690e-004 
3.184556e-004 
3.189830e-004 
3.194485e-004 
3.198493e-004 
3.201834e-004 
3.204487e-004 
3.206438e-004 
3.207670e-004 
3.208173e-004 
3.207936e-004 
3.206949e-004 
3.205205e-004 
3.202698e-004 
3.199422e-004 
3.195373e-004 
3.190548e-004 
3.184945e-004 
3.178562e-004 
3.171399e-004 
3.163457e-004 
3.154738e-004 
3.145246e-004 
3.134985e-004 
3.123962e-004 
3.112184e-004 
3.099661e-004 
3.086406e-004 
3.072431e-004 
3.057753e-004 
3.042390e-004 
3.026362e-004 
3.009693e-004 
2.992410e-004 
2.974540e-004 
2.956116e-004 
2.937172e-004 
2.917746e-004 
2.897878e-004 
2.877613e-004 
2.856997e-004 
2.836079e-004 
2.814912e-004 
2.793551e-004 
2.772055e-004 
2.750482e-004 
2.728897e-004 
2.707364e-004 
2.685949e-004 
2.664720e-004 
2.643747e-004 
2.623098e-004 
2.602846e-004 
2.583060e-004 
2.563810e-004 
2.545167e-004 
2.527198e-004 
2.509971e-004 
2.493549e-004 
2.477995e-004 
2.463367e-004 
2.449721e-004 
2.437108e-004 
2.425575e-004 
2.415164e-004 
2.405911e-004 
2.397848e-004 
2.390999e-004 
2.385383e-004 
2.381012e-004 
2.377891e-004 
2.376017e-004 
2.375383e-004 
2.375970e-004 
2.377755e-004 
2.380706e-004 
2.384785e-004 
2.389946e-004 
2.396136e-004 
2.403294e-004 
2.411355e-004 
2.420244e-004 
2.429883e-004 
2.440187e-004 
2.451066e-004 
2.462424e-004 
2.474164e-004 
2.486180e-004 
2.498367e-004 
2.510615e-004 
2.522812e-004 
2.534846e-004 
2.546602e-004 
2.557966e-004 
2.568826e-004 
2.579069e-004 
2.588586e-004 
2.597272e-004 
2.605024e-004 
2.611744e-004 
2.617336e-004 
2.621705e-004 
2.624752e-004 
2.626381e-004 
2.626468e-004 
2.624929e-004 
1.000000e+000 
1.000000e+000 
3.019290e-004 
3.023499e-004 
3.028551e-004 
3.034386e-004 
3.040920e-004 
3.048067e-004 
3.055730e-004 
3.063814e-004 
3.072221e-004 
3.080856e-004 
3.089625e-004 
3.098441e-004 
3.107219e-004 
3.115881e-004 
3.124353e-004 
3.132569e-004 
3.140467e-004 
3.147994e-004 
3.155099e-004 
3.161738e-004 
3.167873e-004 
3.173469e-004 
3.178495e-004 
3.182926e-004 
3.186737e-004 
3.189908e-004 
3.192423e-004 
3.194265e-004 
3.195420e-004 
3.195878e-004 
3.195629e-004 
3.194662e-004 
3.192972e-004 
3.190551e-004 
3.187394e-004 
3.183497e-004 
3.178854e-004 
3.173465e-004 
3.167327e-004 
3.160439e-004 
3.152802e-004 
3.144416e-004 
3.135285e-004 
3.125411e-004 
3.114802e-004 
3.103463e-004 
3.091403e-004 
3.078633e-004 
3.065166e-004 
3.051015e-004 
3.036199e-004 
3.020737e-004 
3.004650e-004 
2.987963e-004 
2.970703e-004 
2.952902e-004 
2.934591e-004 
2.915807e-004 
2.896588e-004 
2.876978e-004 
2.857020e-004 
2.836762e-004 
2.816256e-004 
2.795555e-004 
2.774715e-004 
2.753794e-004 
2.732853e-004 
2.711955e-004 
2.691165e-004 
2.670548e-004 
2.650174e-004 
2.630108e-004 
2.610422e-004 
2.591183e-004 
2.572460e-004 
2.554321e-004 
2.536834e-004 
2.520063e-004 
2.504073e-004 
2.488922e-004 
2.474670e-004 
2.461371e-004 
2.449075e-004 
2.437828e-004 
2.427672e-004 
2.418642e-004 
2.410769e-004 
2.404078e-004 
2.398586e-004 
2.394306e-004 
2.391243e-004 
2.389394e-004 
2.388751e-004 
2.389298e-004 
2.391010e-004 
2.393859e-004 
2.397805e-004 
2.402804e-004 
2.408804e-004 
2.415747e-004 
2.423568e-004 
2.432196e-004 
2.441554e-004 
2.451561e-004 
2.462129e-004 
2.473166e-004 
2.484577e-004 
2.496263e-004 
2.508122e-004 
2.520049e-004 
2.531939e-004 
2.543683e-004 
2.555176e-004 
2.566308e-004 
2.576974e-004 
2.587069e-004 
2.596492e-004 
2.605143e-004 
2.612926e-004 
2.619747e-004 
2.625517e-004 
2.630146e-004 
2.633543e-004 
2.635621e-004 
2.636279e-004 
2.635444e-004 
1.000000e+000 
1.000000e+000 
3.005616e-004 
3.011193e-004 
3.017380e-004 
3.024135e-004 
3.031400e-004 
3.039106e-004 
3.047180e-004 
3.055544e-004 
3.064117e-004 
3.072821e-004 
3.081579e-004 
3.090315e-004 
3.098958e-004 
3.107441e-004 
3.115703e-004 
3.123685e-004 
3.131336e-004 
3.138607e-004 
3.145456e-004 
3.151844e-004 
3.157738e-004 
3.163106e-004 
3.167922e-004 
3.172163e-004 
3.175807e-004 
3.178837e-004 
3.181237e-004 
3.182992e-004 
3.184090e-004 
3.184520e-004 
3.184274e-004 
3.183341e-004 
3.181716e-004 
3.179391e-004 
3.176361e-004 
3.172621e-004 
3.168167e-004 
3.162995e-004 
3.157104e-004 
3.150491e-004 
3.143157e-004 
3.135102e-004 
3.126327e-004 
3.116835e-004 
3.106631e-004 
3.095721e-004 
3.084112e-004 
3.071814e-004 
3.058838e-004 
3.045197e-004 
3.030907e-004 
3.015986e-004 
3.000455e-004 
2.984336e-004 
2.967657e-004 
2.950444e-004 
2.932730e-004 
2.914549e-004 
2.895939e-004 
2.876939e-004 
2.857594e-004 
2.837948e-004 
2.818052e-004 
2.797957e-004 
2.777718e-004 
2.757391e-004 
2.737036e-004 
2.716713e-004 
2.696487e-004 
2.676421e-004 
2.656582e-004 
2.637036e-004 
2.617852e-004 
2.599097e-004 
2.580838e-004 
2.563143e-004 
2.546077e-004 
2.529704e-004 
2.514088e-004 
2.499287e-004 
2.485360e-004 
2.472359e-004 
2.460335e-004 
2.449333e-004 
2.439394e-004 
2.430554e-004 
2.422843e-004 
2.416286e-004 
2.410900e-004 
2.406699e-004 
2.403687e-004 
2.401862e-004 
2.401216e-004 
2.401734e-004 
2.403392e-004 
2.406160e-004 
2.410003e-004 
2.414876e-004 
2.420729e-004 
2.427505e-004 
2.435141e-004 
2.443568e-004 
2.452711e-004 
2.462491e-004 
2.472823e-004 
2.483620e-004 
2.494788e-004 
2.506233e-004 
2.517856e-004 
2.529558e-004 
2.541238e-004 
2.552793e-004 
2.564122e-004 
2.575124e-004 
2.585697e-004 
2.595745e-004 
2.605171e-004 
2.613881e-004 
2.621787e-004 
2.628800e-004 
2.634837e-004 
2.639815e-004 
2.643653e-004 
2.646274e-004 
2.647597e-004 
2.647563e-004 
1.000000e+000 
1.000000e+000 
2.991291e-004 
2.998264e-004 
3.005634e-004 
3.013371e-004 
3.021437e-004 
3.029782e-004 
3.038350e-004 
3.047078e-004 
3.055904e-004 
3.064764e-004 
3.073593e-004 
3.082330e-004 
3.090917e-004 
3.099297e-004 
3.107419e-004 
3.115235e-004 
3.122699e-004 
3.129772e-004 
3.136418e-004 
3.142604e-004 
3.148300e-004 
3.153481e-004 
3.158125e-004 
3.162209e-004 
3.165718e-004 
3.168634e-004 
3.170943e-004 
3.172634e-004 
3.173694e-004 
3.174115e-004 
3.173887e-004 
3.173003e-004 
3.171455e-004 
3.169237e-004 
3.166342e-004 
3.162767e-004 
3.158507e-004 
3.153557e-004 
3.147916e-004 
3.141580e-004 
3.134549e-004 
3.126822e-004 
3.118400e-004 
3.109285e-004 
3.099480e-004 
3.088989e-004 
3.077820e-004 
3.065980e-004 
3.053480e-004 
3.040331e-004 
3.026548e-004 
3.012147e-004 
2.997147e-004 
2.981570e-004 
2.965440e-004 
2.948785e-004 
2.931633e-004 
2.914019e-004 
2.895977e-004 
2.877546e-004 
2.858769e-004 
2.839689e-004 
2.820354e-004 
2.800815e-004 
2.781124e-004 
2.761336e-004 
2.741510e-004 
2.721705e-004 
2.701984e-004 
2.682409e-004 
2.663045e-004 
2.643959e-004 
2.625216e-004 
2.606884e-004 
2.589029e-004 
2.571717e-004 
2.555013e-004 
2.538982e-004 
2.523685e-004 
2.509181e-004 
2.495527e-004 
2.482777e-004 
2.470980e-004 
2.460182e-004 
2.450424e-004 
2.441740e-004 
2.434163e-004 
2.427716e-004 
2.422418e-004 
2.418281e-004 
2.415311e-004 
2.413507e-004 
2.412861e-004 
2.413358e-004 
2.414975e-004 
2.417684e-004 
2.421450e-004 
2.426229e-004 
2.431972e-004 
2.438625e-004 
2.446125e-004 
2.454405e-004 
2.463393e-004 
2.473011e-004 
2.483178e-004 
2.493808e-004 
2.504812e-004 
2.516098e-004 
2.527571e-004 
2.539137e-004 
2.550698e-004 
2.562156e-004 
2.573416e-004 
2.584380e-004 
2.594954e-004 
2.605046e-004 
2.614566e-004 
2.623425e-004 
2.631540e-004 
2.638830e-004 
2.645216e-004 
2.650625e-004 
2.654983e-004 
2.658226e-004 
2.660287e-004 
2.661120e-004 
1.000000e+000 
1.000000e+000 
2.976549e-004 
2.984931e-004 
2.993512e-004 
3.002275e-004 
3.011198e-004 
3.020244e-004 
3.029372e-004 
3.038536e-004 
3.047687e-004 
3.056774e-004 
3.065748e-004 
3.074558e-004 
3.083158e-004 
3.091502e-004 
3.099548e-004 
3.107256e-004 
3.114591e-004 
3.121520e-004 
3.128012e-004 
3.134041e-004 
3.139583e-004 
3.144617e-004 
3.149123e-004 
3.153085e-004 
3.156487e-004 
3.159317e-004 
3.161562e-004 
3.163211e-004 
3.164254e-004 
3.164684e-004 
3.164492e-004 
3.163670e-004 
3.162213e-004 
3.160112e-004 
3.157364e-004 
3.153963e-004 
3.149903e-004 
3.145181e-004 
3.139793e-004 
3.133736e-004 
3.127009e-004 
3.119609e-004 
3.111537e-004 
3.102794e-004 
3.093381e-004 
3.083302e-004 
3.072563e-004 
3.061169e-004 
3.049131e-004 
3.036457e-004 
3.023162e-004 
3.009260e-004 
2.994768e-004 
2.979707e-004 
2.964100e-004 
2.947971e-004 
2.931349e-004 
2.914266e-004 
2.896755e-004 
2.878853e-004 
2.860602e-004 
2.842043e-004 
2.823222e-004 
2.804190e-004 
2.784996e-004 
2.765696e-004 
2.746345e-004 
2.727003e-004 
2.707729e-004 
2.688588e-004 
2.669641e-004 
2.650955e-004 
2.632595e-004 
2.614627e-004 
2.597117e-004 
2.580130e-004 
2.563733e-004 
2.547987e-004 
2.532955e-004 
2.518696e-004 
2.505266e-004 
2.492720e-004 
2.481106e-004 
2.470471e-004 
2.460855e-004 
2.452295e-004 
2.444822e-004 
2.438460e-004 
2.433229e-004 
2.429141e-004 
2.426202e-004 
2.424413e-004 
2.423766e-004 
2.424247e-004 
2.425835e-004 
2.428501e-004 
2.432211e-004 
2.436924e-004 
2.442591e-004 
2.449159e-004 
2.456567e-004 
2.464750e-004 
2.473638e-004 
2.483154e-004 
2.493220e-004 
2.503752e-004 
2.514663e-004 
2.525866e-004 
2.537269e-004 
2.548780e-004 
2.560305e-004 
2.571752e-004 
2.583029e-004 
2.594043e-004 
2.604705e-004 
2.614927e-004 
2.624624e-004 
2.633714e-004 
2.642119e-004 
2.649763e-004 
2.656574e-004 
2.662485e-004 
2.667433e-004 
2.671362e-004 
2.674218e-004 
2.675965e-004 
1.000000e+000 
1.000000e+000 
2.961600e-004 
2.971393e-004 
2.981202e-004 
2.991022e-004 
3.000840e-004 
3.010635e-004 
3.020377e-004 
3.030035e-004 
3.039571e-004 
3.048948e-004 
3.058129e-004 
3.067074e-004 
3.075747e-004 
3.084114e-004 
3.092140e-004 
3.099796e-004 
3.107054e-004 
3.113887e-004 
3.120272e-004 
3.126188e-004 
3.131616e-004 
3.136540e-004 
3.140944e-004 
3.144815e-004 
3.148141e-004 
3.150912e-004 
3.153117e-004 
3.154747e-004 
3.155795e-004 
3.156253e-004 
3.156114e-004 
3.155371e-004 
3.154017e-004 
3.152048e-004 
3.149456e-004 
3.146237e-004 
3.142386e-004 
3.137897e-004 
3.132768e-004 
3.126993e-004 
3.120571e-004 
3.113498e-004 
3.105775e-004 
3.097400e-004 
3.088374e-004 
3.078700e-004 
3.068381e-004 
3.057423e-004 
3.045833e-004 
3.033620e-004 
3.020795e-004 
3.007372e-004 
2.993367e-004 
2.978798e-004 
2.963686e-004 
2.948055e-004 
2.931932e-004 
2.915346e-004 
2.898330e-004 
2.880919e-004 
2.863153e-004 
2.845072e-004 
2.826722e-004 
2.808149e-004 
2.789405e-004 
2.770541e-004 
2.751614e-004 
2.732681e-004 
2.713801e-004 
2.695037e-004 
2.676452e-004 
2.658109e-004 
2.640074e-004 
2.622413e-004 
2.605191e-004 
2.588474e-004 
2.572327e-004 
2.556812e-004 
2.541992e-004 
2.527926e-004 
2.514672e-004 
2.502282e-004 
2.490807e-004 
2.480293e-004 
2.470782e-004 
2.462311e-004 
2.454911e-004 
2.448607e-004 
2.443420e-004 
2.439363e-004 
2.436444e-004 
2.434662e-004 
2.434011e-004 
2.434478e-004 
2.436043e-004 
2.438679e-004 
2.442352e-004 
2.447022e-004 
2.452641e-004 
2.459158e-004 
2.466514e-004 
2.474645e-004 
2.483481e-004 
2.492949e-004 
2.502972e-004 
2.513468e-004 
2.524355e-004 
2.535544e-004 
2.546949e-004 
2.558481e-004 
2.570049e-004 
2.581564e-004 
2.592937e-004 
2.604082e-004 
2.614912e-004 
2.625343e-004 
2.635296e-004 
2.644694e-004 
2.653461e-004 
2.661530e-004 
2.668833e-004 
2.675311e-004 
2.680908e-004 
2.685574e-004 
2.689269e-004 
2.691962e-004 
1.000000e+000 
1.000000e+000 
2.946639e-004 
2.957834e-004 
2.968879e-004 
2.979773e-004 
2.990515e-004 
3.001095e-004 
3.011494e-004 
3.021691e-004 
3.031663e-004 
3.041382e-004 
3.050822e-004 
3.059955e-004 
3.068755e-004 
3.077196e-004 
3.085254e-004 
3.092907e-004 
3.100134e-004 
3.106916e-004 
3.113236e-004 
3.119080e-004 
3.124432e-004 
3.129282e-004 
3.133618e-004 
3.137429e-004 
3.140709e-004 
3.143447e-004 
3.145638e-004 
3.147273e-004 
3.148347e-004 
3.148852e-004 
3.148784e-004 
3.148135e-004 
3.146901e-004 
3.145075e-004 
3.142652e-004 
3.139626e-004 
3.135991e-004 
3.131743e-004 
3.126878e-004 
3.121389e-004 
3.115275e-004 
3.108531e-004 
3.101155e-004 
3.093145e-004 
3.084503e-004 
3.075227e-004 
3.065321e-004 
3.054788e-004 
3.043635e-004 
3.031868e-004 
3.019498e-004 
3.006536e-004 
2.992996e-004 
2.978896e-004 
2.964255e-004 
2.949094e-004 
2.933440e-004 
2.917319e-004 
2.900764e-004 
2.883808e-004 
2.866488e-004 
2.848845e-004 
2.830922e-004 
2.812765e-004 
2.794423e-004 
2.775948e-004 
2.757394e-004 
2.738819e-004 
2.720280e-004 
2.701840e-004 
2.683561e-004 
2.665507e-004 
2.647742e-004 
2.630332e-004 
2.613342e-004 
2.596840e-004 
2.580888e-004 
2.565551e-004 
2.550890e-004 
2.536967e-004 
2.523838e-004 
2.511558e-004 
2.500177e-004 
2.489743e-004 
2.480298e-004 
2.471880e-004 
2.464521e-004 
2.458247e-004 
2.453080e-004 
2.449034e-004 
2.446117e-004 
2.444331e-004 
2.443670e-004 
2.444123e-004 
2.445669e-004 
2.448283e-004 
2.451933e-004 
2.456579e-004 
2.462176e-004 
2.468672e-004 
2.476010e-004 
2.484127e-004 
2.492956e-004 
2.502425e-004 
2.512458e-004 
2.522976e-004 
2.533898e-004 
2.545138e-004 
2.556613e-004 
2.568235e-004 
2.579917e-004 
2.591573e-004 
2.603118e-004 
2.614467e-004 
2.625539e-004 
2.636254e-004 
2.646535e-004 
2.656310e-004 
2.665508e-004 
2.674066e-004 
2.681923e-004 
2.689023e-004 
2.695318e-004 
2.700765e-004 
2.705331e-004 
2.708991e-004 
1.000000e+000 
1.000000e+000 
2.931839e-004 
2.944425e-004 
2.956704e-004 
2.968683e-004 
2.980369e-004 
2.991759e-004 
3.002846e-004 
3.013620e-004 
3.024067e-004 
3.034171e-004 