# vtk DataFile Version 2.0
2D-ADE data file 
ASCII
DATASET RECTILINEAR_GRID
DIMENSIONS 128 128 1
X_COORDINATES 128 int
0 1 2 3 4 5 6 7 8 9 10 11 12 13 14 15 16 17 18 19 20 21 22 23 24 25 26 27 28 29 30 31 32 33 34 35 36 37 38 39 40 41 42 43 44 45 46 47 48 49 50 51 52 53 54 55 56 57 58 59 60 61 62 63 64 65 66 67 68 69 70 71 72 73 74 75 76 77 78 79 80 81 82 83 84 85 86 87 88 89 90 91 92 93 94 95 96 97 98 99 100 101 102 103 104 105 106 107 108 109 110 111 112 113 114 115 116 117 118 119 120 121 122 123 124 125 126 127 
Y_COORDINATES 128 int
0 1 2 3 4 5 6 7 8 9 10 11 12 13 14 15 16 17 18 19 20 21 22 23 24 25 26 27 28 29 30 31 32 33 34 35 36 37 38 39 40 41 42 43 44 45 46 47 48 49 50 51 52 53 54 55 56 57 58 59 60 61 62 63 64 65 66 67 68 69 70 71 72 73 74 75 76 77 78 79 80 81 82 83 84 85 86 87 88 89 90 91 92 93 94 95 96 97 98 99 100 101 102 103 104 105 106 107 108 109 110 111 112 113 114 115 116 117 118 119 120 121 122 123 124 125 126 127 
Z_COORDINATES 1 int
0
POINT_DATA 16384 
SCALARS density double 1
LOOKUP_TABLE default
1.000000e+000 
1.000000e+000 
1.000000e+000 
1.000000e+000 
1.000000e+000 
1.000000e+000 
1.000000e+000 
1.000000e+000 
1.000000e+000 
1.000000e+000 
1.000000e+000 
1.000000e+000 
1.000000e+000 
1.000000e+000 
1.000000e+000 
1.000000e+000 
1.000000e+000 
1.000000e+000 
1.000000e+000 
1.000000e+000 
1.000000e+000 
1.000000e+000 
1.000000e+000 
1.000000e+000 
1.000000e+000 
1.000000e+000 
1.000000e+000 
1.000000e+000 
1.000000e+000 
1.000000e+000 
1.000000e+000 
1.000000e+000 
1.000000e+000 
1.000000e+000 
1.000000e+000 
1.000000e+000 
1.000000e+000 
1.000000e+000 
1.000000e+000 
1.000000e+000 
1.000000e+000 
1.000000e+000 
1.000000e+000 
1.000000e+000 
1.000000e+000 
1.000000e+000 
1.000000e+000 
1.000000e+000 
1.000000e+000 
1.000000e+000 
1.000000e+000 
1.000000e+000 
1.000000e+000 
1.000000e+000 
1.000000e+000 
1.000000e+000 
1.000000e+000 
1.000000e+000 
1.000000e+000 
1.000000e+000 
1.000000e+000 
1.000000e+000 
1.000000e+000 
1.000000e+000 
1.000000e+000 
1.000000e+000 
1.000000e+000 
1.000000e+000 
1.000000e+000 
1.000000e+000 
1.000000e+000 
1.000000e+000 
1.000000e+000 
1.000000e+000 
1.000000e+000 
1.000000e+000 
1.000000e+000 
1.000000e+000 
1.000000e+000 
1.000000e+000 
1.000000e+000 
1.000000e+000 
1.000000e+000 
1.000000e+000 
1.000000e+000 
1.000000e+000 
1.000000e+000 
1.000000e+000 
1.000000e+000 
1.000000e+000 
1.000000e+000 
1.000000e+000 
1.000000e+000 
1.000000e+000 
1.000000e+000 
1.000000e+000 
1.000000e+000 
1.000000e+000 
1.000000e+000 
1.000000e+000 
1.000000e+000 
1.000000e+000 
1.000000e+000 
1.000000e+000 
1.000000e+000 
1.000000e+000 
1.000000e+000 
1.000000e+000 
1.000000e+000 
1.000000e+000 
1.000000e+000 
1.000000e+000 
1.000000e+000 
1.000000e+000 
1.000000e+000 
1.000000e+000 
1.000000e+000 
1.000000e+000 
1.000000e+000 
1.000000e+000 
1.000000e+000 
1.000000e+000 
1.000000e+000 
1.000000e+000 
1.000000e+000 
1.000000e+000 
1.000000e+000 
1.000000e+000 
1.000000e+000 
3.071333e-004 
3.070435e-004 
3.071279e-004 
3.074584e-004 
3.080494e-004 
3.088595e-004 
3.098469e-004 
3.109751e-004 
3.122107e-004 
3.135235e-004 
3.148865e-004 
3.162762e-004 
3.176723e-004 
3.190569e-004 
3.204149e-004 
3.217331e-004 
3.230004e-004 
3.242071e-004 
3.253453e-004 
3.264082e-004 
3.273901e-004 
3.282864e-004 
3.290931e-004 
3.298071e-004 
3.304258e-004 
3.309473e-004 
3.313697e-004 
3.316919e-004 
3.319127e-004 
3.320316e-004 
3.320478e-004 
3.319610e-004 
3.317709e-004 
3.314773e-004 
3.310800e-004 
3.305791e-004 
3.299746e-004 
3.292667e-004 
3.284556e-004 
3.275416e-004 
3.265251e-004 
3.254066e-004 
3.241868e-004 
3.228664e-004 
3.214464e-004 
3.199281e-004 
3.183126e-004 
3.166016e-004 
3.147970e-004 
3.129008e-004 
3.109154e-004 
3.088436e-004 
3.066883e-004 
3.044530e-004 
3.021413e-004 
2.997575e-004 
2.973059e-004 
2.947915e-004 
2.922195e-004 
2.895956e-004 
2.869258e-004 
2.842167e-004 
2.814749e-004 
2.787078e-004 
2.759228e-004 
2.731277e-004 
2.703308e-004 
2.675405e-004 
2.647654e-004 
2.620144e-004 
2.592966e-004 
2.566211e-004 
2.539971e-004 
2.514339e-004 
2.489408e-004 
2.465269e-004 
2.442012e-004 
2.419725e-004 
2.398494e-004 
2.378401e-004 
2.359525e-004 
2.341941e-004 
2.325717e-004 
2.310917e-004 
2.297600e-004 
2.285817e-004 
2.275611e-004 
2.267018e-004 
2.260069e-004 
2.254781e-004 
2.251167e-004 
2.249228e-004 
2.248958e-004 
2.250340e-004 
2.253348e-004 
2.257945e-004 
2.264087e-004 
2.271717e-004 
2.280771e-004 
2.291174e-004 
2.302843e-004 
2.315684e-004 
2.329594e-004 
2.344464e-004 
2.360174e-004 
2.376596e-004 
2.393594e-004 
2.411026e-004 
2.428740e-004 
2.446578e-004 
2.464375e-004 
2.481958e-004 
2.499148e-004 
2.515759e-004 
2.531599e-004 
2.546470e-004 
2.560168e-004 
2.572485e-004 
2.583214e-004 
2.592152e-004 
2.599114e-004 
2.603940e-004 
2.606510e-004 
2.606850e-004 
2.605744e-004 
2.604211e-004 
1.000000e+000 
1.000000e+000 
3.072231e-004 
3.071333e-004 
3.072342e-004 
3.075571e-004 
3.080865e-004 
3.088053e-004 
3.096852e-004 
3.106964e-004 
3.118096e-004 
3.129982e-004 
3.142383e-004 
3.155082e-004 
3.167888e-004 
3.180635e-004 
3.193177e-004 
3.205385e-004 
3.217151e-004 
3.228380e-004 
3.238992e-004 
3.248919e-004 
3.258102e-004 
3.266493e-004 
3.274051e-004 
3.280742e-004 
3.286539e-004 
3.291419e-004 
3.295363e-004 
3.298357e-004 
3.300387e-004 
3.301446e-004 
3.301525e-004 
3.300619e-004 
3.298723e-004 
3.295835e-004 
3.291953e-004 
3.287076e-004 
3.281203e-004 
3.274336e-004 
3.266476e-004 
3.257627e-004 
3.247792e-004 
3.236976e-004 
3.225185e-004 
3.212429e-004 
3.198715e-004 
3.184056e-004 
3.168465e-004 
3.151958e-004 
3.134553e-004 
3.116270e-004 
3.097134e-004 
3.077171e-004 
3.056410e-004 
3.034884e-004 
3.012630e-004 
2.989689e-004 
2.966102e-004 
2.941919e-004 
2.917189e-004 
2.891967e-004 
2.866313e-004 
2.840286e-004 
2.813955e-004 
2.787386e-004 
2.760653e-004 
2.733831e-004 
2.706998e-004 
2.680235e-004 
2.653624e-004 
2.627250e-004 
2.601199e-004 
2.575559e-004 
2.550418e-004 
2.525863e-004 
2.501983e-004 
2.478864e-004 
2.456593e-004 
2.435251e-004 
2.414921e-004 
2.395681e-004 
2.377604e-004 
2.360762e-004 
2.345219e-004 
2.331035e-004 
2.318264e-004 
2.306955e-004 
2.297147e-004 
2.288876e-004 
2.282167e-004 
2.277037e-004 
2.273497e-004 
2.271547e-004 
2.271180e-004 
2.272378e-004 
2.275115e-004 
2.279357e-004 
2.285057e-004 
2.292164e-004 
2.300613e-004 
2.310332e-004 
2.321242e-004 
2.333251e-004 
2.346261e-004 
2.360168e-004 
2.374855e-004 
2.390201e-004 
2.406077e-004 
2.422346e-004 
2.438864e-004 
2.455482e-004 
2.472043e-004 
2.488384e-004 
2.504338e-004 
2.519731e-004 
2.534386e-004 
2.548121e-004 
2.560754e-004 
2.572100e-004 
2.581982e-004 
2.590230e-004 
2.596694e-004 
2.601269e-004 
2.603935e-004 
2.604806e-004 
2.604211e-004 
2.602678e-004 
1.000000e+000 
1.000000e+000 
3.071389e-004 
3.070321e-004 
3.071332e-004 
3.074433e-004 
3.079339e-004 
3.085926e-004 
3.093955e-004 
3.103176e-004 
3.113343e-004 
3.124226e-004 
3.135609e-004 
3.147298e-004 
3.159116e-004 
3.170909e-004 
3.182537e-004 
3.193881e-004 
3.204834e-004 
3.215305e-004 
3.225216e-004 
3.234498e-004 
3.243094e-004 
3.250954e-004 
3.258038e-004 
3.264309e-004 
3.269739e-004 
3.274304e-004 
3.277983e-004 
3.280761e-004 
3.282623e-004 
3.283560e-004 
3.283561e-004 
3.282621e-004 
3.280735e-004 
3.277898e-004 
3.274107e-004 
3.269361e-004 
3.263660e-004 
3.257003e-004 
3.249392e-004 
3.240830e-004 
3.231319e-004 
3.220866e-004 
3.209476e-004 
3.197157e-004 
3.183917e-004 
3.169770e-004 
3.154727e-004 
3.138804e-004 
3.122019e-004 
3.104393e-004 
3.085947e-004 
3.066709e-004 
3.046707e-004 
3.025973e-004 
3.004543e-004 
2.982454e-004 
2.959751e-004 
2.936477e-004 
2.912683e-004 
2.888420e-004 
2.863747e-004 
2.838721e-004 
2.813406e-004 
2.787869e-004 
2.762179e-004 
2.736408e-004 
2.710631e-004 
2.684925e-004 
2.659370e-004 
2.634046e-004 
2.609037e-004 
2.584425e-004 
2.560295e-004 
2.536730e-004 
2.513815e-004 
2.491632e-004 
2.470263e-004 
2.449787e-004 
2.430281e-004 
2.411820e-004 
2.394473e-004 
2.378308e-004 
2.363386e-004 
2.349763e-004 
2.337492e-004 
2.326616e-004 
2.317174e-004 
2.309198e-004 
2.302711e-004 
2.297730e-004 
2.294262e-004 
2.292308e-004 
2.291860e-004 
2.292900e-004 
2.295402e-004 
2.299331e-004 
2.304644e-004 
2.311289e-004 
2.319203e-004 
2.328319e-004 
2.338557e-004 
2.349831e-004 
2.362047e-004 
2.375102e-004 
2.388888e-004 
2.403286e-004 
2.418175e-004 
2.433422e-004 
2.448893e-004 
2.464445e-004 
2.479930e-004 
2.495195e-004 
2.510083e-004 
2.524434e-004 
2.538083e-004 
2.550865e-004 
2.562613e-004 
2.573165e-004 
2.582364e-004 
2.590070e-004 
2.596157e-004 
2.600539e-004 
2.603193e-004 
2.604216e-004 
2.603614e-004 
2.601565e-004 
1.000000e+000 
1.000000e+000 
3.068072e-004 
3.067079e-004 
3.068231e-004 
3.071344e-004 
3.076107e-004 
3.082352e-004 
3.089866e-004 
3.098448e-004 
3.107889e-004 
3.117986e-004 
3.128549e-004 
3.139404e-004 
3.150391e-004 
3.161367e-004 
3.172204e-004 
3.182789e-004 
3.193022e-004 
3.202815e-004 
3.212093e-004 
3.220789e-004 
3.228848e-004 
3.236220e-004 
3.242863e-004 
3.248744e-004 
3.253832e-004 
3.258102e-004 
3.261534e-004 
3.264110e-004 
3.265815e-004 
3.266638e-004 
3.266570e-004 
3.265602e-004 
3.263729e-004 
3.260945e-004 
3.257248e-004 
3.252635e-004 
3.247105e-004 
3.240657e-004 
3.233292e-004 
3.225014e-004 
3.215823e-004 
3.205727e-004 
3.194729e-004 
3.182837e-004 
3.170062e-004 
3.156412e-004 
3.141902e-004 
3.126546e-004 
3.110361e-004 
3.093367e-004 
3.075586e-004 
3.057044e-004 
3.037769e-004 
3.017791e-004 
2.997145e-004 
2.975868e-004 
2.954001e-004 
2.931588e-004 
2.908676e-004 
2.885317e-004 
2.861565e-004 
2.837476e-004 
2.813113e-004 
2.788538e-004 
2.763818e-004 
2.739023e-004 
2.714225e-004 
2.689498e-004 
2.664917e-004 
2.640562e-004 
2.616510e-004 
2.592843e-004 
2.569640e-004 
2.546982e-004 
2.524949e-004 
2.503621e-004 
2.483075e-004 
2.463387e-004 
2.444631e-004 
2.426878e-004 
2.410195e-004 
2.394645e-004 
2.380287e-004 
2.367175e-004 
2.355357e-004 
2.344875e-004 
2.335767e-004 
2.328061e-004 
2.321779e-004 
2.316937e-004 
2.313541e-004 
2.311591e-004 
2.311077e-004 
2.311983e-004 
2.314282e-004 
2.317941e-004 
2.322917e-004 
2.329159e-004 
2.336608e-004 
2.345196e-004 
2.354847e-004 
2.365479e-004 
2.377000e-004 
2.389313e-004 
2.402312e-004 
2.415885e-004 
2.429915e-004 
2.444277e-004 
2.458842e-004 
2.473474e-004 
2.488036e-004 
2.502382e-004 
2.516367e-004 
2.529840e-004 
2.542651e-004 
2.554646e-004 
2.565677e-004 
2.575597e-004 
2.584267e-004 
2.591560e-004 
2.597369e-004 
2.601618e-004 
2.604248e-004 
2.605254e-004 
2.604474e-004 
2.601878e-004 
1.000000e+000 
1.000000e+000 
3.062123e-004 
3.061750e-004 
3.063311e-004 
3.066606e-004 
3.071395e-004 
3.077493e-004 
3.084711e-004 
3.092871e-004 
3.101789e-004 
3.111291e-004 
3.121211e-004 
3.131392e-004 
3.141693e-004 
3.151982e-004 
3.162144e-004 
3.172071e-004 
3.181673e-004 
3.190866e-004 
3.199579e-004 
3.207748e-004 
3.215320e-004 
3.222247e-004 
3.228489e-004 
3.234011e-004 
3.238783e-004 
3.242782e-004 
3.245984e-004 
3.248374e-004 
3.249936e-004 
3.250657e-004 
3.250528e-004 
3.249539e-004 
3.247685e-004 
3.244959e-004 
3.241359e-004 
3.236880e-004 
3.231521e-004 
3.225282e-004 
3.218162e-004 
3.210164e-004 
3.201289e-004 
3.191543e-004 
3.180930e-004 
3.169458e-004 
3.157134e-004 
3.143970e-004 
3.129977e-004 
3.115170e-004 
3.099565e-004 
3.083181e-004 
3.066040e-004 
3.048166e-004 
3.029586e-004 
3.010330e-004 
2.990431e-004 
2.969924e-004 
2.948850e-004 
2.927250e-004 
2.905171e-004 
2.882661e-004 
2.859773e-004 
2.836561e-004 
2.813086e-004 
2.789407e-004 
2.765589e-004 
2.741699e-004 
2.717806e-004 
2.693982e-004 
2.670300e-004 
2.646835e-004 
2.623663e-004 
2.600861e-004 
2.578506e-004 
2.556675e-004 
2.535447e-004 
2.514896e-004 
2.495098e-004 
2.476126e-004 
2.458050e-004 
2.440939e-004 
2.424857e-004 
2.409864e-004 
2.396016e-004 
2.383366e-004 
2.371959e-004 
2.361836e-004 
2.353030e-004 
2.345571e-004 
2.339478e-004 
2.334766e-004 
2.331441e-004 
2.329501e-004 
2.328937e-004 
2.329732e-004 
2.331860e-004 
2.335288e-004 
2.339975e-004 
2.345870e-004 
2.352916e-004 
2.361048e-004 
2.370192e-004 
2.380269e-004 
2.391190e-004 
2.402861e-004 
2.415182e-004 
2.428045e-004 
2.441336e-004 
2.454939e-004 
2.468730e-004 
2.482581e-004 
2.496361e-004 
2.509934e-004 
2.523163e-004 
2.535909e-004 
2.548033e-004 
2.559393e-004 
2.569854e-004 
2.579282e-004 
2.587552e-004 
2.594547e-004 
2.600165e-004 
2.604321e-004 
2.606929e-004 
2.607917e-004 
2.607110e-004 
2.604385e-004 
1.000000e+000 
1.000000e+000 
3.053931e-004 
3.054486e-004 
3.056683e-004 
3.060372e-004 
3.065372e-004 
3.071509e-004 
3.078618e-004 
3.086538e-004 
3.095113e-004 
3.104191e-004 
3.113625e-004 
3.123280e-004 
3.133027e-004 
3.142751e-004 
3.152344e-004 
3.161711e-004 
3.170768e-004 
3.179436e-004 
3.187651e-004 
3.195351e-004 
3.202487e-004 
3.209014e-004 
3.214891e-004 
3.220087e-004 
3.224573e-004 
3.228324e-004 
3.231318e-004 
3.233540e-004 
3.234972e-004 
3.235604e-004 
3.235424e-004 
3.234423e-004 
3.232594e-004 
3.229932e-004 
3.226432e-004 
3.222090e-004 
3.216905e-004 
3.210874e-004 
3.203998e-004 
3.196277e-004 
3.187715e-004 
3.178314e-004 
3.168079e-004 
3.157017e-004 
3.145135e-004 
3.132443e-004 
3.118953e-004 
3.104678e-004 
3.089634e-004 
3.073838e-004 
3.057312e-004 
3.040079e-004 
3.022165e-004 
3.003597e-004 
2.984408e-004 
2.964633e-004 
2.944309e-004 
2.923477e-004 
2.902181e-004 
2.880468e-004 
2.858389e-004 
2.835997e-004 
2.813348e-004 
2.790502e-004 
2.767521e-004 
2.744468e-004 
2.721411e-004 
2.698418e-004 
2.675561e-004 
2.652912e-004 
2.630544e-004 
2.608531e-004 
2.586948e-004 
2.565870e-004 
2.545371e-004 
2.525525e-004 
2.506405e-004 
2.488079e-004 
2.470617e-004 
2.454084e-004 
2.438543e-004 
2.424051e-004 
2.410663e-004 
2.398428e-004 
2.387391e-004 
2.377590e-004 
2.369059e-004 
2.361824e-004 
2.355905e-004 
2.351314e-004 
2.348058e-004 
2.346134e-004 
2.345533e-004 
2.346238e-004 
2.348223e-004 
2.351457e-004 
2.355899e-004 
2.361499e-004 
2.368203e-004 
2.375946e-004 
2.384658e-004 
2.394262e-004 
2.404671e-004 
2.415797e-004 
2.427541e-004 
2.439800e-004 
2.452468e-004 
2.465431e-004 
2.478571e-004 
2.491768e-004 
2.504898e-004 
2.517833e-004 
2.530445e-004 
2.542604e-004 
2.554179e-004 
2.565043e-004 
2.575068e-004 
2.584133e-004 
2.592120e-004 
2.598923e-004 
2.604439e-004 
2.608575e-004 
2.611230e-004 
2.612300e-004 
2.611632e-004 
2.609103e-004 
1.000000e+000 
1.000000e+000 
3.043887e-004 
3.045551e-004 
3.048571e-004 
3.052843e-004 
3.058218e-004 
3.064555e-004 
3.071714e-004 
3.079555e-004 
3.087943e-004 
3.096745e-004 
3.105836e-004 
3.115095e-004 
3.124410e-004 
3.133679e-004 
3.142805e-004 
3.151703e-004 
3.160295e-004 
3.168513e-004 
3.176293e-004 
3.183583e-004 
3.190333e-004 
3.196503e-004 
3.202055e-004 
3.206959e-004 
3.211187e-004 
3.214715e-004 
3.217524e-004 
3.219596e-004 
3.220915e-004 
3.221471e-004 
3.221252e-004 
3.220249e-004 
3.218454e-004 
3.215862e-004 
3.212467e-004 
3.208266e-004 
3.203256e-004 
3.197434e-004 
3.190801e-004 
3.183357e-004 
3.175104e-004 
3.166043e-004 
3.156180e-004 
3.145519e-004 
3.134069e-004 
3.121838e-004 
3.108836e-004 
3.095077e-004 
3.080575e-004 
3.065346e-004 
3.049412e-004 
3.032793e-004 
3.015514e-004 
2.997603e-004 
2.979090e-004 
2.960008e-004 
2.940394e-004 
2.920285e-004 
2.899726e-004 
2.878761e-004 
2.857439e-004 
2.835811e-004 
2.813931e-004 
2.791857e-004 
2.769649e-004 
2.747368e-004 
2.725080e-004 
2.702851e-004 
2.680749e-004 
2.658845e-004 
2.637209e-004 
2.615913e-004 
2.595031e-004 
2.574634e-004 
2.554794e-004 
2.535583e-004 
2.517071e-004 
2.499326e-004 
2.482414e-004 
2.466400e-004 
2.451342e-004 
2.437298e-004 
2.424320e-004 
2.412456e-004 
2.401750e-004 
2.392238e-004 
2.383953e-004 
2.376920e-004 
2.371158e-004 
2.366679e-004 
2.363489e-004 
2.361586e-004 
2.360960e-004 
2.361594e-004 
2.363464e-004 
2.366537e-004 
2.370774e-004 
2.376129e-004 
2.382545e-004 
2.389962e-004 
2.398312e-004 
2.407518e-004 
2.417499e-004 
2.428167e-004 
2.439430e-004 
2.451187e-004 
2.463337e-004 
2.475770e-004 
2.488375e-004 
2.501038e-004 
2.513641e-004 
2.526063e-004 
2.538185e-004 
2.549884e-004 
2.561039e-004 
2.571532e-004 
2.581244e-004 
2.590063e-004 
2.597879e-004 
2.604590e-004 
2.610095e-004 
2.614299e-004 
2.617098e-004 
2.618385e-004 
2.618022e-004 
2.615909e-004 
1.000000e+000 
1.000000e+000 
3.032333e-004 
3.035225e-004 
3.039210e-004 
3.044207e-004 
3.050101e-004 
3.056782e-004 
3.064131e-004 
3.072031e-004 
3.080367e-004 
3.089025e-004 
3.097896e-004 
3.106878e-004 
3.115872e-004 
3.124787e-004 
3.133539e-004 
3.142053e-004 
3.150258e-004 
3.158093e-004 
3.165502e-004 
3.172436e-004 
3.178850e-004 
3.184707e-004 
3.189973e-004 
3.194619e-004 
3.198619e-004 
3.201952e-004 
3.204597e-004 
3.206539e-004 
3.207764e-004 
3.208259e-004 
3.208013e-004 
3.207018e-004 
3.205267e-004 
3.202752e-004 
3.199469e-004 
3.195413e-004 
3.190582e-004 
3.184972e-004 
3.178582e-004 
3.171413e-004 
3.163465e-004 
3.154741e-004 
3.145243e-004 
3.134977e-004 
3.123949e-004 
3.112167e-004 
3.099641e-004 
3.086381e-004 
3.072403e-004 
3.057722e-004 
3.042356e-004 
3.026326e-004 
3.009655e-004 
2.992370e-004 
2.974499e-004 
2.956074e-004 
2.937130e-004 
2.917703e-004 
2.897836e-004 
2.877571e-004 
2.856955e-004 
2.836038e-004 
2.814872e-004 
2.793512e-004 
2.772017e-004 
2.750447e-004 
2.728863e-004 
2.707332e-004 
2.685918e-004 
2.664691e-004 
2.643719e-004 
2.623072e-004 
2.602821e-004 
2.583036e-004 
2.563788e-004 
2.545145e-004 
2.527177e-004 
2.509949e-004 
2.493527e-004 
2.477972e-004 
2.463344e-004 
2.449696e-004 
2.437081e-004 
2.425546e-004 
2.415132e-004 
2.405875e-004 
2.397808e-004 
2.390955e-004 
2.385334e-004 
2.380958e-004 
2.377831e-004 
2.375951e-004 
2.375309e-004 
2.375889e-004 
2.377666e-004 
2.380609e-004 
2.384680e-004 
2.389832e-004 
2.396013e-004 
2.403162e-004 
2.411213e-004 
2.420093e-004 
2.429722e-004 
2.440016e-004 
2.450886e-004 
2.462235e-004 
2.473965e-004 
2.485972e-004 
2.498150e-004 
2.510390e-004 
2.522579e-004 
2.534605e-004 
2.546354e-004 
2.557711e-004 
2.568565e-004 
2.578802e-004 
2.588315e-004 
2.596997e-004 
2.604745e-004 
2.611463e-004 
2.617053e-004 
2.621421e-004 
2.624468e-004 
2.626097e-004 
2.626186e-004 
2.624649e-004 
1.000000e+000 
1.000000e+000 
3.019579e-004 
3.023786e-004 
3.028836e-004 
3.034668e-004 
3.041199e-004 
3.048342e-004 
3.056000e-004 
3.064079e-004 
3.072480e-004 
3.081108e-004 
3.089871e-004 
3.098680e-004 
3.107451e-004 
3.116105e-004 
3.124569e-004 
3.132777e-004 
3.140667e-004 
3.148186e-004 
3.155283e-004 
3.161914e-004 
3.168040e-004 
3.173628e-004 
3.178646e-004 
3.183068e-004 
3.186871e-004 
3.190034e-004 
3.192540e-004 
3.194374e-004 
3.195521e-004 
3.195971e-004 
3.195714e-004 
3.194740e-004 
3.193042e-004 
3.190613e-004 
3.187449e-004 
3.183544e-004 
3.178895e-004 
3.173499e-004 
3.167354e-004 
3.160460e-004 
3.152816e-004 
3.144424e-004 
3.135287e-004 
3.125409e-004 
3.114794e-004 
3.103450e-004 
3.091386e-004 
3.078612e-004 
3.065141e-004 
3.050987e-004 
3.036168e-004 
3.020703e-004 
3.004613e-004 
2.987924e-004 
2.970663e-004 
2.952860e-004 
2.934548e-004 
2.915763e-004 
2.896544e-004 
2.876934e-004 
2.856976e-004 
2.836719e-004 
2.816214e-004 
2.795513e-004 
2.774674e-004 
2.753754e-004 
2.732814e-004 
2.711917e-004 
2.691128e-004 
2.670513e-004 
2.650140e-004 
2.630076e-004 
2.610390e-004 
2.591152e-004 
2.572430e-004 
2.554292e-004 
2.536805e-004 
2.520034e-004 
2.504043e-004 
2.488892e-004 
2.474639e-004 
2.461338e-004 
2.449040e-004 
2.437791e-004 
2.427632e-004 
2.418598e-004 
2.410721e-004 
2.404025e-004 
2.398529e-004 
2.394243e-004 
2.391174e-004 
2.389319e-004 
2.388669e-004 
2.389209e-004 
2.390914e-004 
2.393754e-004 
2.397692e-004 
2.402683e-004 
2.408674e-004 
2.415608e-004 
2.423420e-004 
2.432038e-004 
2.441387e-004 
2.451384e-004 
2.461943e-004 
2.472971e-004 
2.484373e-004 
2.496050e-004 
2.507900e-004 
2.519819e-004 
2.531701e-004 
2.543438e-004 
2.554923e-004 
2.566049e-004 
2.576709e-004 
2.586799e-004 
2.596217e-004 
2.604864e-004 
2.612643e-004 
2.619462e-004 
2.625230e-004 
2.629858e-004 
2.633254e-004 
2.635333e-004 
2.635993e-004 
2.635161e-004 
1.000000e+000 
1.000000e+000 
3.005914e-004 
3.011489e-004 
3.017673e-004 
3.024425e-004 
3.031685e-004 
3.039388e-004 
3.047457e-004 
3.055814e-004 
3.064382e-004 
3.073080e-004 
3.081830e-004 
3.090559e-004 
3.099195e-004 
3.107671e-004 
3.115925e-004 
3.123900e-004 
3.131543e-004 
3.138806e-004 
3.145647e-004 
3.152027e-004 
3.157912e-004 
3.163272e-004 
3.168080e-004 
3.172312e-004 
3.175949e-004 
3.178970e-004 
3.181361e-004 
3.183108e-004 
3.184198e-004 
3.184621e-004 
3.184366e-004 
3.183426e-004 
3.181793e-004 
3.179460e-004 
3.176422e-004 
3.172675e-004 
3.168213e-004 
3.163035e-004 
3.157137e-004 
3.150518e-004 
3.143177e-004 
3.135115e-004 
3.126334e-004 
3.116837e-004 
3.106628e-004 
3.095712e-004 
3.084099e-004 
3.071796e-004 
3.058815e-004 
3.045171e-004 
3.030877e-004 
3.015953e-004 
3.000419e-004 
2.984298e-004 
2.967616e-004 
2.950402e-004 
2.932686e-004 
2.914504e-004 
2.895893e-004 
2.876893e-004 
2.857547e-004 
2.837902e-004 
2.818006e-004 
2.797912e-004 
2.777673e-004 
2.757346e-004 
2.736992e-004 
2.716670e-004 
2.696445e-004 
2.676380e-004 
2.656542e-004 
2.636997e-004 
2.617814e-004 
2.599059e-004 
2.580801e-004 
2.563106e-004 
2.546040e-004 
2.529667e-004 
2.514050e-004 
2.499249e-004 
2.485320e-004 
2.472318e-004 
2.460291e-004 
2.449287e-004 
2.439345e-004 
2.430502e-004 
2.422787e-004 
2.416225e-004 
2.410835e-004 
2.406628e-004 
2.403610e-004 
2.401779e-004 
2.401127e-004 
2.401637e-004 
2.403288e-004 
2.406049e-004 
2.409883e-004 
2.414748e-004 
2.420592e-004 
2.427359e-004 
2.434986e-004 
2.443404e-004 
2.452538e-004 
2.462308e-004 
2.472632e-004 
2.483419e-004 
2.494578e-004 
2.506014e-004 
2.517629e-004 
2.529323e-004 
2.540995e-004 
2.552543e-004 
2.563866e-004 
2.574861e-004 
2.585428e-004 
2.595471e-004 
2.604891e-004 
2.613598e-004 
2.621500e-004 
2.628511e-004 
2.634546e-004 
2.639523e-004 
2.643361e-004 
2.645982e-004 
2.647306e-004 
2.647274e-004 
1.000000e+000 
1.000000e+000 
2.991599e-004 
2.998570e-004 
3.005935e-004 
3.013668e-004 
3.021730e-004 
3.030071e-004 
3.038633e-004 
3.047355e-004 
3.056175e-004 
3.065028e-004 
3.073850e-004 
3.082581e-004 
3.091160e-004 
3.099533e-004 
3.107648e-004 
3.115455e-004 
3.122912e-004 
3.129977e-004 
3.136615e-004 
3.142793e-004 
3.148481e-004 
3.153654e-004 
3.158289e-004 
3.162366e-004 
3.165866e-004 
3.168774e-004 
3.171075e-004 
3.172758e-004 
3.173810e-004 
3.174223e-004 
3.173987e-004 
3.173094e-004 
3.171538e-004 
3.169312e-004 
3.166410e-004 
3.162828e-004 
3.158560e-004 
3.153603e-004 
3.147954e-004 
3.141612e-004 
3.134574e-004 
3.126840e-004 
3.118412e-004 
3.109290e-004 
3.099479e-004 
3.088984e-004 
3.077809e-004 
3.065965e-004 
3.053460e-004 
3.040306e-004 
3.026519e-004 
3.012114e-004 
2.997111e-004 
2.981531e-004 
2.965399e-004 
2.948741e-004 
2.931588e-004 
2.913972e-004 
2.895929e-004 
2.877497e-004 
2.858719e-004 
2.839639e-004 
2.820304e-004 
2.800765e-004 
2.781074e-004 
2.761286e-004 
2.741461e-004 
2.721657e-004 
2.701936e-004 
2.682361e-004 
2.662999e-004 
2.643913e-004 
2.625171e-004 
2.606839e-004 
2.588984e-004 
2.571672e-004 
2.554969e-004 
2.538937e-004 
2.523639e-004 
2.509134e-004 
2.495479e-004 
2.482728e-004 
2.470929e-004 
2.460128e-004 
2.450367e-004 
2.441680e-004 
2.434099e-004 
2.427647e-004 
2.422345e-004 
2.418203e-004 
2.415227e-004 
2.413417e-004 
2.412764e-004 
2.413253e-004 
2.414864e-004 
2.417565e-004 
2.421323e-004 
2.426093e-004 
2.431828e-004 
2.438472e-004 
2.445963e-004 
2.454234e-004 
2.463213e-004 
2.472823e-004 
2.482981e-004 
2.493602e-004 
2.504597e-004 
2.515874e-004 
2.527339e-004 
2.538897e-004 
2.550450e-004 
2.561901e-004 
2.573154e-004 
2.584112e-004 
2.594680e-004 
2.604767e-004 
2.614282e-004 
2.623137e-004 
2.631248e-004 
2.638535e-004 
2.644920e-004 
2.650327e-004 
2.654685e-004 
2.657928e-004 
2.659990e-004 
2.660825e-004 
1.000000e+000 
1.000000e+000 
2.976868e-004 
2.985246e-004 
2.993823e-004 
3.002581e-004 
3.011499e-004 
3.020539e-004 
3.029662e-004 
3.038820e-004 
3.047964e-004 
3.057045e-004 
3.066012e-004 
3.074815e-004 
3.083408e-004 
3.091744e-004 
3.099782e-004 
3.107483e-004 
3.114810e-004 
3.121731e-004 
3.128216e-004 
3.134237e-004 
3.139771e-004 
3.144797e-004 
3.149295e-004 
3.153249e-004 
3.156643e-004 
3.159464e-004 
3.161700e-004 
3.163341e-004 
3.164377e-004 
3.164798e-004 
3.164598e-004 
3.163768e-004 
3.162302e-004 
3.160194e-004 
3.157438e-004 
3.154028e-004 
3.149961e-004 
3.145231e-004 
3.139836e-004 
3.133772e-004 
3.127037e-004 
3.119631e-004 
3.111552e-004 
3.102802e-004 
3.093383e-004 
3.083299e-004 
3.072554e-004 
3.061155e-004 
3.049111e-004 
3.036433e-004 
3.023134e-004 
3.009227e-004 
2.994732e-004 
2.979668e-004 
2.964057e-004 
2.947926e-004 
2.931302e-004 
2.914216e-004 
2.896704e-004 
2.878801e-004 
2.860548e-004 
2.841988e-004 
2.823168e-004 
2.804135e-004 
2.784941e-004 
2.765641e-004 
2.746290e-004 
2.726948e-004 
2.707675e-004 
2.688534e-004 
2.669588e-004 
2.650902e-004 
2.632542e-004 
2.614574e-004 
2.597065e-004 
2.580078e-004 
2.563681e-004 
2.547934e-004 
2.532902e-004 
2.518641e-004 
2.505210e-004 
2.492662e-004 
2.481046e-004 
2.470409e-004 
2.460790e-004 
2.452227e-004 
2.444749e-004 
2.438383e-004 
2.433147e-004 
2.429054e-004 
2.426110e-004 
2.424315e-004 
2.423662e-004 
2.424136e-004 
2.425716e-004 
2.428375e-004 
2.432077e-004 
2.436781e-004 
2.442440e-004 
2.448999e-004 
2.456399e-004 
2.464573e-004 
2.473452e-004 
2.482959e-004 
2.493016e-004 
2.503539e-004 
2.514442e-004 
2.525637e-004 
2.537031e-004 
2.548534e-004 
2.560052e-004 
2.571492e-004 
2.582762e-004 
2.593769e-004 
2.604426e-004 
2.614642e-004 
2.624335e-004 
2.633421e-004 
2.641822e-004 
2.649462e-004 
2.656271e-004 
2.662181e-004 
2.667129e-004 
2.671057e-004 
2.673914e-004 
2.675663e-004 
1.000000e+000 
1.000000e+000 
2.961930e-004 
2.971718e-004 
2.981522e-004 
2.991336e-004 
3.001149e-004 
3.010938e-004 
3.020674e-004 
3.030325e-004 
3.039855e-004 
3.049225e-004 
3.058399e-004 
3.067337e-004 
3.076003e-004 
3.084362e-004 
3.092381e-004 
3.100030e-004 
3.107279e-004 
3.114104e-004 
3.120482e-004 
3.126390e-004 
3.131810e-004 
3.136726e-004 
3.141122e-004 
3.144985e-004 
3.148303e-004 
3.151065e-004 
3.153262e-004 
3.154884e-004 
3.155924e-004 
3.156374e-004 
3.156226e-004 
3.155474e-004 
3.154113e-004 
3.152135e-004 
3.149535e-004 
3.146308e-004 
3.142449e-004 
3.137952e-004 
3.132815e-004 
3.127033e-004 
3.120603e-004 
3.113523e-004 
3.105793e-004 
3.097411e-004 
3.088379e-004 
3.078698e-004 
3.068373e-004 
3.057410e-004 
3.045814e-004 
3.033596e-004 
3.020766e-004 
3.007339e-004 
2.993330e-004 
2.978757e-004 
2.963641e-004 
2.948007e-004 
2.931881e-004 
2.915293e-004 
2.898275e-004 
2.880862e-004 
2.863095e-004 
2.845013e-004 
2.826662e-004 
2.808088e-004 
2.789343e-004 
2.770480e-004 
2.751552e-004 
2.732619e-004 
2.713740e-004 
2.694976e-004 
2.676391e-004 
2.658048e-004 
2.640014e-004 
2.622353e-004 
2.605131e-004 
2.588414e-004 
2.572266e-004 
2.556751e-004 
2.541930e-004 
2.527863e-004 
2.514607e-004 
2.502216e-004 
2.490739e-004 
2.480223e-004 
2.470709e-004 
2.462234e-004 
2.454830e-004 
2.448522e-004 
2.443331e-004 
2.439269e-004 
2.436343e-004 
2.434555e-004 
2.433898e-004 
2.434359e-004 
2.435916e-004 
2.438545e-004 
2.442210e-004 
2.446872e-004 
2.452483e-004 
2.458992e-004 
2.466339e-004 
2.474461e-004 
2.483288e-004 
2.492748e-004 
2.502762e-004 
2.513250e-004 
2.524127e-004 
2.535309e-004 
2.546706e-004 
2.558229e-004 
2.569790e-004 
2.581298e-004 
2.592664e-004 
2.603802e-004 
2.614626e-004 
2.625052e-004 
2.635001e-004 
2.644394e-004 
2.653158e-004 
2.661223e-004 
2.668524e-004 
2.675001e-004 
2.680596e-004 
2.685263e-004 
2.688958e-004 
2.691652e-004 
1.000000e+000 
1.000000e+000 
2.946980e-004 
2.958169e-004 
2.969208e-004 
2.980097e-004 
2.990833e-004 
3.001405e-004 
3.011798e-004 
3.021989e-004 
3.031953e-004 
3.041665e-004 
3.051098e-004 
3.060224e-004 
3.069017e-004 
3.077450e-004 
3.085501e-004 
3.093146e-004 
3.100366e-004 
3.107140e-004 
3.113453e-004 
3.119288e-004 
3.124633e-004 
3.129474e-004 
3.133802e-004 
3.137606e-004 
3.140877e-004 
3.143607e-004 
3.145789e-004 
3.147416e-004 
3.148481e-004 
3.148978e-004 
3.148902e-004 
3.148245e-004 
3.147002e-004 
3.145167e-004 
3.142736e-004 
3.139701e-004 
3.136058e-004 
3.131802e-004 
3.126929e-004 
3.121432e-004 
3.115310e-004 
3.108558e-004 
3.101175e-004 
3.093158e-004 
3.084508e-004 
3.075226e-004 
3.065313e-004 
3.054775e-004 
3.043615e-004 
3.031843e-004 
3.019467e-004 
3.006501e-004 
2.992956e-004 
2.978852e-004 
2.964207e-004 
2.949043e-004 
2.933385e-004 
2.917262e-004 
2.900704e-004 
2.883746e-004 
2.866425e-004 
2.848780e-004 
2.830856e-004 
2.812698e-004 
2.794355e-004 
2.775879e-004 
2.757325e-004 
2.738750e-004 
2.720211e-004 
2.701771e-004 
2.683492e-004 
2.665438e-004 
2.647673e-004 
2.630263e-004 
2.613274e-004 
2.596771e-004 
2.580818e-004 
2.565481e-004 
2.550820e-004 
2.536895e-004 
2.523765e-004 
2.511483e-004 
2.500100e-004 
2.489664e-004 
2.480216e-004 
2.471794e-004 
2.464431e-004 
2.458154e-004 
2.452982e-004 
2.448931e-004 
2.446009e-004 
2.444217e-004 
2.443550e-004 
2.443996e-004 
2.445535e-004 
2.448142e-004 
2.451784e-004 
2.456422e-004 
2.462011e-004 
2.468498e-004 
2.475827e-004 
2.483936e-004 
2.492756e-004 
2.502217e-004 
2.512241e-004 
2.522751e-004 
2.533664e-004 
2.544896e-004 
2.556363e-004 
2.567977e-004 
2.579651e-004 
2.591300e-004 
2.602838e-004 
2.614181e-004 
2.625247e-004 
2.635957e-004 
2.646233e-004 
2.656003e-004 
2.665198e-004 
2.673753e-004 
2.681607e-004 
2.688705e-004 
2.694999e-004 
2.700445e-004 
2.705011e-004 
2.708673e-004 
1.000000e+000 
1.000000e+000 
2.932193e-004 
2.944771e-004 
2.957044e-004 
2.969016e-004 
2.980695e-004 
2.992077e-004 
3.003158e-004 
3.013925e-004 
3.024365e-004 
3.034462e-004 