# vtk DataFile Version 2.0
2D-ADE data file 
ASCII
DATASET RECTILINEAR_GRID
DIMENSIONS 128 128 1
X_COORDINATES 128 int
0 1 2 3 4 5 6 7 8 9 10 11 12 13 14 15 16 17 18 19 20 21 22 23 24 25 26 27 28 29 30 31 32 33 34 35 36 37 38 39 40 41 42 43 44 45 46 47 48 49 50 51 52 53 54 55 56 57 58 59 60 61 62 63 64 65 66 67 68 69 70 71 72 73 74 75 76 77 78 79 80 81 82 83 84 85 86 87 88 89 90 91 92 93 94 95 96 97 98 99 100 101 102 103 104 105 106 107 108 109 110 111 112 113 114 115 116 117 118 119 120 121 122 123 124 125 126 127 
Y_COORDINATES 128 int
0 1 2 3 4 5 6 7 8 9 10 11 12 13 14 15 16 17 18 19 20 21 22 23 24 25 26 27 28 29 30 31 32 33 34 35 36 37 38 39 40 41 42 43 44 45 46 47 48 49 50 51 52 53 54 55 56 57 58 59 60 61 62 63 64 65 66 67 68 69 70 71 72 73 74 75 76 77 78 79 80 81 82 83 84 85 86 87 88 89 90 91 92 93 94 95 96 97 98 99 100 101 102 103 104 105 106 107 108 109 110 111 112 113 114 115 116 117 118 119 120 121 122 123 124 125 126 127 
Z_COORDINATES 1 int
0
POINT_DATA 16384 
SCALARS density double 1
LOOKUP_TABLE default
1.000000e+000 
1.000000e+000 
1.000000e+000 
1.000000e+000 
1.000000e+000 
1.000000e+000 
1.000000e+000 
1.000000e+000 
1.000000e+000 
1.000000e+000 
1.000000e+000 
1.000000e+000 
1.000000e+000 
1.000000e+000 
1.000000e+000 
1.000000e+000 
1.000000e+000 
1.000000e+000 
1.000000e+000 
1.000000e+000 
1.000000e+000 
1.000000e+000 
1.000000e+000 
1.000000e+000 
1.000000e+000 
1.000000e+000 
1.000000e+000 
1.000000e+000 
1.000000e+000 
1.000000e+000 
1.000000e+000 
1.000000e+000 
1.000000e+000 
1.000000e+000 
1.000000e+000 
1.000000e+000 
1.000000e+000 
1.000000e+000 
1.000000e+000 
1.000000e+000 
1.000000e+000 
1.000000e+000 
1.000000e+000 
1.000000e+000 
1.000000e+000 
1.000000e+000 
1.000000e+000 
1.000000e+000 
1.000000e+000 
1.000000e+000 
1.000000e+000 
1.000000e+000 
1.000000e+000 
1.000000e+000 
1.000000e+000 
1.000000e+000 
1.000000e+000 
1.000000e+000 
1.000000e+000 
1.000000e+000 
1.000000e+000 
1.000000e+000 
1.000000e+000 
1.000000e+000 
1.000000e+000 
1.000000e+000 
1.000000e+000 
1.000000e+000 
1.000000e+000 
1.000000e+000 
1.000000e+000 
1.000000e+000 
1.000000e+000 
1.000000e+000 
1.000000e+000 
1.000000e+000 
1.000000e+000 
1.000000e+000 
1.000000e+000 
1.000000e+000 
1.000000e+000 
1.000000e+000 
1.000000e+000 
1.000000e+000 
1.000000e+000 
1.000000e+000 
1.000000e+000 
1.000000e+000 
1.000000e+000 
1.000000e+000 
1.000000e+000 
1.000000e+000 
1.000000e+000 
1.000000e+000 
1.000000e+000 
1.000000e+000 
1.000000e+000 
1.000000e+000 
1.000000e+000 
1.000000e+000 
1.000000e+000 
1.000000e+000 
1.000000e+000 
1.000000e+000 
1.000000e+000 
1.000000e+000 
1.000000e+000 
1.000000e+000 
1.000000e+000 
1.000000e+000 
1.000000e+000 
1.000000e+000 
1.000000e+000 
1.000000e+000 
1.000000e+000 
1.000000e+000 
1.000000e+000 
1.000000e+000 
1.000000e+000 
1.000000e+000 
1.000000e+000 
1.000000e+000 
1.000000e+000 
1.000000e+000 
1.000000e+000 
1.000000e+000 
1.000000e+000 
1.000000e+000 
1.000000e+000 
3.071624e-004 
3.070728e-004 
3.071571e-004 
3.074876e-004 
3.080783e-004 
3.088878e-004 
3.098746e-004 
3.110020e-004 
3.122368e-004 
3.135485e-004 
3.149105e-004 
3.162991e-004 
3.176940e-004 
3.190774e-004 
3.204342e-004 
3.217512e-004 
3.230172e-004 
3.242228e-004 
3.253598e-004 
3.264214e-004 
3.274022e-004 
3.282973e-004 
3.291028e-004 
3.298157e-004 
3.304334e-004 
3.309537e-004 
3.313751e-004 
3.316963e-004 
3.319162e-004 
3.320342e-004 
3.320495e-004 
3.319618e-004 
3.317709e-004 
3.314764e-004 
3.310784e-004 
3.305768e-004 
3.299717e-004 
3.292632e-004 
3.284515e-004 
3.275369e-004 
3.265199e-004 
3.254010e-004 
3.241808e-004 
3.228601e-004 
3.214399e-004 
3.199212e-004 
3.183056e-004 
3.165945e-004 
3.147898e-004 
3.128936e-004 
3.109082e-004 
3.088365e-004 
3.066814e-004 
3.044462e-004 
3.021348e-004 
2.997512e-004 
2.973000e-004 
2.947859e-004 
2.922144e-004 
2.895909e-004 
2.869216e-004 
2.842130e-004 
2.814718e-004 
2.787052e-004 
2.759208e-004 
2.731263e-004 
2.703300e-004 
2.675403e-004 
2.647657e-004 
2.620153e-004 
2.592981e-004 
2.566231e-004 
2.539996e-004 
2.514369e-004 
2.489442e-004 
2.465306e-004 
2.442052e-004 
2.419768e-004 
2.398539e-004 
2.378448e-004 
2.359572e-004 
2.341988e-004 
2.325763e-004 
2.310962e-004 
2.297642e-004 
2.285856e-004 
2.275645e-004 
2.267048e-004 
2.260092e-004 
2.254798e-004 
2.251176e-004 
2.249229e-004 
2.248950e-004 
2.250322e-004 
2.253319e-004 
2.257905e-004 
2.264034e-004 
2.271652e-004 
2.280693e-004 
2.291083e-004 
2.302738e-004 
2.315565e-004 
2.329461e-004 
2.344316e-004 
2.360012e-004 
2.376419e-004 
2.393404e-004 
2.410822e-004 
2.428522e-004 
2.446347e-004 
2.464132e-004 
2.481703e-004 
2.498882e-004 
2.515483e-004 
2.531314e-004 
2.546177e-004 
2.559867e-004 
2.572179e-004 
2.582903e-004 
2.591837e-004 
2.598798e-004 
2.603623e-004 
2.606194e-004 
2.606535e-004 
2.605430e-004 
2.603899e-004 
1.000000e+000 
1.000000e+000 
3.072522e-004 
3.071624e-004 
3.072633e-004 
3.075861e-004 
3.081152e-004 
3.088335e-004 
3.097129e-004 
3.107234e-004 
3.118357e-004 
3.130235e-004 
3.142625e-004 
3.155314e-004 
3.168110e-004 
3.180845e-004 
3.193375e-004 
3.205572e-004 
3.217326e-004 
3.228544e-004 
3.239144e-004 
3.249059e-004 
3.258231e-004 
3.266611e-004 
3.274158e-004 
3.280838e-004 
3.286625e-004 
3.291494e-004 
3.295428e-004 
3.298412e-004 
3.300433e-004 
3.301482e-004 
3.301553e-004 
3.300638e-004 
3.298734e-004 
3.295838e-004 
3.291948e-004 
3.287064e-004 
3.281184e-004 
3.274311e-004 
3.266445e-004 
3.257591e-004 
3.247750e-004 
3.236930e-004 
3.225135e-004 
3.212375e-004 
3.198658e-004 
3.183997e-004 
3.168404e-004 
3.151895e-004 
3.134488e-004 
3.116205e-004 
3.097069e-004 
3.077106e-004 
3.056345e-004 
3.034821e-004 
3.012570e-004 
2.989630e-004 
2.966047e-004 
2.941866e-004 
2.917140e-004 
2.891922e-004 
2.866271e-004 
2.840249e-004 
2.813922e-004 
2.787359e-004 
2.760631e-004 
2.733814e-004 
2.706986e-004 
2.680228e-004 
2.653622e-004 
2.627253e-004 
2.601207e-004 
2.575572e-004 
2.550435e-004 
2.525884e-004 
2.502007e-004 
2.478892e-004 
2.456623e-004 
2.435283e-004 
2.414955e-004 
2.395716e-004 
2.377640e-004 
2.360797e-004 
2.345252e-004 
2.331066e-004 
2.318293e-004 
2.306980e-004 
2.297169e-004 
2.288892e-004 
2.282177e-004 
2.277041e-004 
2.273493e-004 
2.271535e-004 
2.271159e-004 
2.272347e-004 
2.275074e-004 
2.279305e-004 
2.284994e-004 
2.292089e-004 
2.300526e-004 
2.310232e-004 
2.321128e-004 
2.333124e-004 
2.346121e-004 
2.360014e-004 
2.374688e-004 
2.390020e-004 
2.405883e-004 
2.422139e-004 
2.438644e-004 
2.455250e-004 
2.471799e-004 
2.488129e-004 
2.504072e-004 
2.519456e-004 
2.534102e-004 
2.547830e-004 
2.560456e-004 
2.571796e-004 
2.581673e-004 
2.589918e-004 
2.596381e-004 
2.600954e-004 
2.603620e-004 
2.604492e-004 
2.603898e-004 
2.602367e-004 
1.000000e+000 
1.000000e+000 
3.071679e-004 
3.070612e-004 
3.071624e-004 
3.074723e-004 
3.079626e-004 
3.086209e-004 
3.094232e-004 
3.103447e-004 
3.113606e-004 
3.124480e-004 
3.135855e-004 
3.147534e-004 
3.159342e-004 
3.171124e-004 
3.182741e-004 
3.194074e-004 
3.205016e-004 
3.215477e-004 
3.225376e-004 
3.234647e-004 
3.243232e-004 
3.251082e-004 
3.258154e-004 
3.264415e-004 
3.269834e-004 
3.274389e-004 
3.278058e-004 
3.280826e-004 
3.282679e-004 
3.283607e-004 
3.283600e-004 
3.282651e-004 
3.280756e-004 
3.277911e-004 
3.274113e-004 
3.269360e-004 
3.263652e-004 
3.256988e-004 
3.249371e-004 
3.240803e-004 
3.231288e-004 
3.220830e-004 
3.209435e-004 
3.197112e-004 
3.183869e-004 
3.169718e-004 
3.154673e-004 
3.138748e-004 
3.121962e-004 
3.104334e-004 
3.085888e-004 
3.066650e-004 
3.046648e-004 
3.025915e-004 
3.004485e-004 
2.982399e-004 
2.959697e-004 
2.936426e-004 
2.912635e-004 
2.888376e-004 
2.863705e-004 
2.838683e-004 
2.813373e-004 
2.787840e-004 
2.762154e-004 
2.736387e-004 
2.710615e-004 
2.684913e-004 
2.659362e-004 
2.634043e-004 
2.609038e-004 
2.584430e-004 
2.560304e-004 
2.536743e-004 
2.513831e-004 
2.491650e-004 
2.470283e-004 
2.449809e-004 
2.430304e-004 
2.411843e-004 
2.394497e-004 
2.378331e-004 
2.363407e-004 
2.349783e-004 
2.337509e-004 
2.326629e-004 
2.317183e-004 
2.309202e-004 
2.302709e-004 
2.297721e-004 
2.294246e-004 
2.292285e-004 
2.291828e-004 
2.292858e-004 
2.295350e-004 
2.299269e-004 
2.304571e-004 
2.311204e-004 
2.319107e-004 
2.328210e-004 
2.338436e-004 
2.349697e-004 
2.361900e-004 
2.374942e-004 
2.388715e-004 
2.403101e-004 
2.417976e-004 
2.433212e-004 
2.448670e-004 
2.464210e-004 
2.479684e-004 
2.494939e-004 
2.509818e-004 
2.524159e-004 
2.537800e-004 
2.550574e-004 
2.562316e-004 
2.572863e-004 
2.582058e-004 
2.589760e-004 
2.595845e-004 
2.600226e-004 
2.602880e-004 
2.603904e-004 
2.603302e-004 
2.601255e-004 
1.000000e+000 
1.000000e+000 
3.068364e-004 
3.067372e-004 
3.068524e-004 
3.071636e-004 
3.076396e-004 
3.082636e-004 
3.090145e-004 
3.098721e-004 
3.108155e-004 
3.118244e-004 
3.128799e-004 
3.139644e-004 
3.150622e-004 
3.161588e-004 
3.172415e-004 
3.182989e-004 
3.193211e-004 
3.202994e-004 
3.212261e-004 
3.220946e-004 
3.228994e-004 
3.236356e-004 
3.242989e-004 
3.248859e-004 
3.253937e-004 
3.258197e-004 
3.261619e-004 
3.264185e-004 
3.265882e-004 
3.266696e-004 
3.266619e-004 
3.265642e-004 
3.263761e-004 
3.260969e-004 
3.257265e-004 
3.252644e-004 
3.247106e-004 
3.240652e-004 
3.233281e-004 
3.224997e-004 
3.215801e-004 
3.205699e-004 
3.194697e-004 
3.182801e-004 
3.170021e-004 
3.156368e-004 
3.141855e-004 
3.126496e-004 
3.110309e-004 
3.093314e-004 
3.075532e-004 
3.056990e-004 
3.037714e-004 
3.017736e-004 
2.997091e-004 
2.975815e-004 
2.953950e-004 
2.931538e-004 
2.908629e-004 
2.885273e-004 
2.861523e-004 
2.837438e-004 
2.813077e-004 
2.788506e-004 
2.763790e-004 
2.738999e-004 
2.714204e-004 
2.689481e-004 
2.664904e-004 
2.640553e-004 
2.616505e-004 
2.592841e-004 
2.569641e-004 
2.546986e-004 
2.524956e-004 
2.503630e-004 
2.483085e-004 
2.463399e-004 
2.444644e-004 
2.426891e-004 
2.410207e-004 
2.394657e-004 
2.380297e-004 
2.367183e-004 
2.355362e-004 
2.344877e-004 
2.335764e-004 
2.328053e-004 
2.321766e-004 
2.316917e-004 
2.313514e-004 
2.311556e-004 
2.311034e-004 
2.311930e-004 
2.314220e-004 
2.317869e-004 
2.322835e-004 
2.329065e-004 
2.336503e-004 
2.345079e-004 
2.354718e-004 
2.365338e-004 
2.376847e-004 
2.389147e-004 
2.402133e-004 
2.415695e-004 
2.429712e-004 
2.444062e-004 
2.458616e-004 
2.473237e-004 
2.487788e-004 
2.502125e-004 
2.516100e-004 
2.529565e-004 
2.542367e-004 
2.554356e-004 
2.565380e-004 
2.575295e-004 
2.583961e-004 
2.591251e-004 
2.597058e-004 
2.601306e-004 
2.603936e-004 
2.604942e-004 
2.604163e-004 
2.601569e-004 
1.000000e+000 
1.000000e+000 
3.062418e-004 
3.062046e-004 
3.063607e-004 
3.066900e-004 
3.071686e-004 
3.077780e-004 
3.084994e-004 
3.093147e-004 
3.102058e-004 
3.111553e-004 
3.121464e-004 
3.131637e-004 
3.141929e-004 
3.152209e-004 
3.162360e-004 
3.172278e-004 
3.181869e-004 
3.191052e-004 
3.199754e-004 
3.207913e-004 
3.215475e-004 
3.222392e-004 
3.228623e-004 
3.234135e-004 
3.238898e-004 
3.242886e-004 
3.246080e-004 
3.248460e-004 
3.250012e-004 
3.250725e-004 
3.250586e-004 
3.249589e-004 
3.247727e-004 
3.244993e-004 
3.241385e-004 
3.236898e-004 
3.231532e-004 
3.225286e-004 
3.218160e-004 
3.210156e-004 
3.201276e-004 
3.191524e-004 
3.180906e-004 
3.169429e-004 
3.157101e-004 
3.143933e-004 
3.129937e-004 
3.115127e-004 
3.099519e-004 
3.083134e-004 
3.065991e-004 
3.048116e-004 
3.029536e-004 
3.010279e-004 
2.990380e-004 
2.969874e-004 
2.948801e-004 
2.927202e-004 
2.905124e-004 
2.882616e-004 
2.859730e-004 
2.836522e-004 
2.813048e-004 
2.789372e-004 
2.765558e-004 
2.741671e-004 
2.717782e-004 
2.693961e-004 
2.670282e-004 
2.646820e-004 
2.623651e-004 
2.600852e-004 
2.578499e-004 
2.556671e-004 
2.535445e-004 
2.514896e-004 
2.495100e-004 
2.476129e-004 
2.458054e-004 
2.440942e-004 
2.424859e-004 
2.409865e-004 
2.396016e-004 
2.383363e-004 
2.371953e-004 
2.361826e-004 
2.353016e-004 
2.345552e-004 
2.339454e-004 
2.334735e-004 
2.331403e-004 
2.329455e-004 
2.328883e-004 
2.329669e-004 
2.331788e-004 
2.335206e-004 
2.339883e-004 
2.345767e-004 
2.352802e-004 
2.360923e-004 
2.370055e-004 
2.380120e-004 
2.391030e-004 
2.402689e-004 
2.414998e-004 
2.427849e-004 
2.441129e-004 
2.454721e-004 
2.468500e-004 
2.482341e-004 
2.496110e-004 
2.509674e-004 
2.522894e-004 
2.535632e-004 
2.547748e-004 
2.559102e-004 
2.569557e-004 
2.578980e-004 
2.587246e-004 
2.594238e-004 
2.599853e-004 
2.604008e-004 
2.606616e-004 
2.607604e-004 
2.606799e-004 
2.604077e-004 
1.000000e+000 
1.000000e+000 
3.054231e-004 
3.054787e-004 
3.056983e-004 
3.060671e-004 
3.065667e-004 
3.071801e-004 
3.078904e-004 
3.086819e-004 
3.095387e-004 
3.104457e-004 
3.113884e-004 
3.123530e-004 
3.133269e-004 
3.142983e-004 
3.152567e-004 
3.161924e-004 
3.170971e-004 
3.179630e-004 
3.187834e-004 
3.195525e-004 
3.202651e-004 
3.209167e-004 
3.215035e-004 
3.220221e-004 
3.224697e-004 
3.228438e-004 
3.231423e-004 
3.233635e-004 
3.235059e-004 
3.235681e-004 
3.235492e-004 
3.234483e-004 
3.232646e-004 
3.229976e-004 
3.226468e-004 
3.222118e-004 
3.216925e-004 
3.210887e-004 
3.204005e-004 
3.196278e-004 
3.187709e-004 
3.178303e-004 
3.168063e-004 
3.156995e-004 
3.145109e-004 
3.132413e-004 
3.118919e-004 
3.104641e-004 
3.089593e-004 
3.073796e-004 
3.057268e-004 
3.040033e-004 
3.022117e-004 
3.003549e-004 
2.984360e-004 
2.964584e-004 
2.944260e-004 
2.923429e-004 
2.902134e-004 
2.880423e-004 
2.858346e-004 
2.835956e-004 
2.813309e-004 
2.790465e-004 
2.767486e-004 
2.744436e-004 
2.721382e-004 
2.698392e-004 
2.675538e-004 
2.652891e-004 
2.630526e-004 
2.608515e-004 
2.586935e-004 
2.565859e-004 
2.545362e-004 
2.525517e-004 
2.506397e-004 
2.488072e-004 
2.470611e-004 
2.454078e-004 
2.438535e-004 
2.424042e-004 
2.410652e-004 
2.398415e-004 
2.387375e-004 
2.377570e-004 
2.369035e-004 
2.361795e-004 
2.355870e-004 
2.351273e-004 
2.348009e-004 
2.346078e-004 
2.345469e-004 
2.346165e-004 
2.348142e-004 
2.351366e-004 
2.355798e-004 
2.361388e-004 
2.368081e-004 
2.375813e-004 
2.384514e-004 
2.394106e-004 
2.404504e-004 
2.415618e-004 
2.427351e-004 
2.439599e-004 
2.452256e-004 
2.465207e-004 
2.478337e-004 
2.491524e-004 
2.504644e-004 
2.517570e-004 
2.530174e-004 
2.542324e-004 
2.553892e-004 
2.564749e-004 
2.574769e-004 
2.583829e-004 
2.591813e-004 
2.598613e-004 
2.604127e-004 
2.608262e-004 
2.610916e-004 
2.611986e-004 
2.611321e-004 
2.608795e-004 
1.000000e+000 
1.000000e+000 
3.044194e-004 
3.045858e-004 
3.048876e-004 
3.053146e-004 
3.058518e-004 
3.064851e-004 
3.072005e-004 
3.079840e-004 
3.088221e-004 
3.097016e-004 
3.106099e-004 
3.115350e-004 
3.124657e-004 
3.133917e-004 
3.143034e-004 
3.151923e-004 
3.160506e-004 
3.168713e-004 
3.176484e-004 
3.183764e-004 
3.190505e-004 
3.196665e-004 
3.202207e-004 
3.207102e-004 
3.211320e-004 
3.214839e-004 
3.217638e-004 
3.219700e-004 
3.221011e-004 
3.221558e-004 
3.221330e-004 
3.220318e-004 
3.218515e-004 
3.215914e-004 
3.212512e-004 
3.208303e-004 
3.203285e-004 
3.197457e-004 
3.190817e-004 
3.183366e-004 
3.175106e-004 
3.166039e-004 
3.156170e-004 
3.145505e-004 
3.134050e-004 
3.121814e-004 
3.108808e-004 
3.095045e-004 
3.080539e-004 
3.065308e-004 
3.049371e-004 
3.032750e-004 
3.015470e-004 
2.997558e-004 
2.979043e-004 
2.959961e-004 
2.940346e-004 
2.920238e-004 
2.899679e-004 
2.878715e-004 
2.857394e-004 
2.835768e-004 
2.813890e-004 
2.791818e-004 
2.769611e-004 
2.747333e-004 
2.725047e-004 
2.702820e-004 
2.680720e-004 
2.658818e-004 
2.637184e-004 
2.615891e-004 
2.595010e-004 
2.574615e-004 
2.554776e-004 
2.535566e-004 
2.517055e-004 
2.499311e-004 
2.482399e-004 
2.466384e-004 
2.451325e-004 
2.437279e-004 
2.424299e-004 
2.412433e-004 
2.401724e-004 
2.392208e-004 
2.383919e-004 
2.376880e-004 
2.371113e-004 
2.366628e-004 
2.363431e-004 
2.361520e-004 
2.360886e-004 
2.361512e-004 
2.363373e-004 
2.366437e-004 
2.370665e-004 
2.376009e-004 
2.382415e-004 
2.389822e-004 
2.398160e-004 
2.407355e-004 
2.417325e-004 
2.427982e-004 
2.439234e-004 
2.450980e-004 
2.463119e-004 
2.475542e-004 
2.488137e-004 
2.500790e-004 
2.513383e-004 
2.525797e-004 
2.537910e-004 
2.549601e-004 
2.560750e-004 
2.571236e-004 
2.580943e-004 
2.589757e-004 
2.597569e-004 
2.604277e-004 
2.609781e-004 
2.613983e-004 
2.616781e-004 
2.618070e-004 
2.617709e-004 
2.615598e-004 
1.000000e+000 
1.000000e+000 
3.032647e-004 
3.035539e-004 
3.039522e-004 
3.044517e-004 
3.050408e-004 
3.057084e-004 
3.064427e-004 
3.072322e-004 
3.080651e-004 
3.089302e-004 
3.098166e-004 
3.107139e-004 
3.116125e-004 
3.125031e-004 
3.133775e-004 
3.142280e-004 
3.150476e-004 
3.158301e-004 
3.165701e-004 
3.172625e-004 
3.179030e-004 
3.184877e-004 
3.190134e-004 
3.194770e-004 
3.198761e-004 
3.202084e-004 
3.204720e-004 
3.206653e-004 
3.207868e-004 
3.208354e-004 
3.208100e-004 
3.207097e-004 
3.205337e-004 
3.202814e-004 
3.199522e-004 
3.195459e-004 
3.190619e-004 
3.185002e-004 
3.178605e-004 
3.171429e-004 
3.163475e-004 
3.154744e-004 
3.145241e-004 
3.134969e-004 
3.123936e-004 
3.112149e-004 
3.099617e-004 
3.086354e-004 
3.072372e-004 
3.057687e-004 
3.042318e-004 
3.026286e-004 
3.009613e-004 
2.992326e-004 
2.974454e-004 
2.956027e-004 
2.937082e-004 
2.917656e-004 
2.897788e-004 
2.877523e-004 
2.856908e-004 
2.835992e-004 
2.814827e-004 
2.793469e-004 
2.771975e-004 
2.750406e-004 
2.728825e-004 
2.707295e-004 
2.685883e-004 
2.664658e-004 
2.643688e-004 
2.623043e-004 
2.602793e-004 
2.583009e-004 
2.563762e-004 
2.545120e-004 
2.527153e-004 
2.509925e-004 
2.493503e-004 
2.477947e-004 
2.463317e-004 
2.449668e-004 
2.437051e-004 
2.425513e-004 
2.415096e-004 
2.405836e-004 
2.397764e-004 
2.390906e-004 
2.385279e-004 
2.380897e-004 
2.377763e-004 
2.375876e-004 
2.375227e-004 
2.375798e-004 
2.377567e-004 
2.380501e-004 
2.384562e-004 
2.389704e-004 
2.395875e-004 
2.403013e-004 
2.411054e-004 
2.419923e-004 
2.429541e-004 
2.439825e-004 
2.450684e-004 
2.462022e-004 
2.473742e-004 
2.485739e-004 
2.497907e-004 
2.510137e-004 
2.522317e-004 
2.534334e-004 
2.546075e-004 
2.557425e-004 
2.568272e-004 
2.578503e-004 
2.588010e-004 
2.596688e-004 
2.604433e-004 
2.611147e-004 
2.616735e-004 
2.621101e-004 
2.624148e-004 
2.625778e-004 
2.625869e-004 
2.624335e-004 
1.000000e+000 
1.000000e+000 
3.019903e-004 
3.024109e-004 
3.029156e-004 
3.034985e-004 
3.041512e-004 
3.048650e-004 
3.056303e-004 
3.064376e-004 
3.072770e-004 
3.081391e-004 
3.090147e-004 
3.098948e-004 
3.107710e-004 
3.116356e-004 
3.124811e-004 
3.133010e-004 
3.140892e-004 
3.148401e-004 
3.155489e-004 
3.162111e-004 
3.168228e-004 
3.173806e-004 
3.178815e-004 
3.183227e-004 
3.187021e-004 
3.190175e-004 
3.192672e-004 
3.194496e-004 
3.195635e-004 
3.196076e-004 
3.195809e-004 
3.194827e-004 
3.193120e-004 
3.190683e-004 
3.187510e-004 
3.183597e-004 
3.178940e-004 
3.173537e-004 
3.167384e-004 
3.160483e-004 
3.152832e-004 
3.144434e-004 
3.135291e-004 
3.125406e-004 
3.114786e-004 
3.103437e-004 
3.091367e-004 
3.078589e-004 
3.065113e-004 
3.050956e-004 
3.036133e-004 
3.020664e-004 
3.004572e-004 
2.987881e-004 
2.970618e-004 
2.952813e-004 
2.934500e-004 
2.915715e-004 
2.896495e-004 
2.876884e-004 
2.856927e-004 
2.836670e-004 
2.816166e-004 
2.795466e-004 
2.774628e-004 
2.753709e-004 
2.732770e-004 
2.711875e-004 
2.691088e-004 
2.670474e-004 
2.650102e-004 
2.630039e-004 
2.610355e-004 
2.591118e-004 
2.572397e-004 
2.554259e-004 
2.536772e-004 
2.520001e-004 
2.504010e-004 
2.488858e-004 
2.474604e-004 
2.461301e-004 
2.449001e-004 
2.437749e-004 
2.427586e-004 
2.418549e-004 
2.410668e-004 
2.403967e-004 
2.398465e-004 
2.394173e-004 
2.391097e-004 
2.389235e-004 
2.388578e-004 
2.389109e-004 
2.390806e-004 
2.393637e-004 
2.397566e-004 
2.402547e-004 
2.408528e-004 
2.415452e-004 
2.423253e-004 
2.431861e-004 
2.441200e-004 
2.451186e-004 
2.461734e-004 
2.472752e-004 
2.484144e-004 
2.495811e-004 
2.507652e-004 
2.519561e-004 
2.531434e-004 
2.543163e-004 
2.554640e-004 
2.565759e-004 
2.576412e-004 
2.586496e-004 
2.595909e-004 
2.604551e-004 
2.612326e-004 
2.619142e-004 
2.624908e-004 
2.629535e-004 
2.632931e-004 
2.635010e-004 
2.635672e-004 
2.634843e-004 
1.000000e+000 
1.000000e+000 
3.006248e-004 
3.011821e-004 
3.018002e-004 
3.024750e-004 
3.032006e-004 
3.039703e-004 
3.047766e-004 
3.056118e-004 
3.064679e-004 
3.073369e-004 
3.082112e-004 
3.090833e-004 
3.099461e-004 
3.107929e-004 
3.116175e-004 
3.124141e-004 
3.131774e-004 
3.139029e-004 
3.145860e-004 
3.152231e-004 
3.158107e-004 
3.163458e-004 
3.168257e-004 
3.172480e-004 
3.176107e-004 
3.179119e-004 
3.181502e-004 
3.183239e-004 
3.184320e-004 
3.184734e-004 
3.184470e-004 
3.183521e-004 
3.181879e-004 
3.179538e-004 
3.176492e-004 
3.172736e-004 
3.168266e-004 
3.163080e-004 
3.157174e-004 
3.150547e-004 
3.143199e-004 
3.135130e-004 
3.126343e-004 
3.116839e-004 
3.106624e-004 
3.095703e-004 
3.084084e-004 
3.071776e-004 
3.058790e-004 
3.045141e-004 
3.030844e-004 
3.015916e-004 
3.000379e-004 
2.984256e-004 
2.967571e-004 
2.950355e-004 
2.932638e-004 
2.914454e-004 
2.895842e-004 
2.876841e-004 
2.857495e-004 
2.837850e-004 
2.817954e-004 
2.797860e-004 
2.777622e-004 
2.757296e-004 
2.736943e-004 
2.716622e-004 
2.696398e-004 
2.676334e-004 
2.656497e-004 
2.636954e-004 
2.617771e-004 
2.599017e-004 
2.580760e-004 
2.563065e-004 
2.545999e-004 
2.529626e-004 
2.514008e-004 
2.499206e-004 
2.485276e-004 
2.472271e-004 
2.460243e-004 
2.449236e-004 
2.439290e-004 
2.430443e-004 
2.422724e-004 
2.416157e-004 
2.410762e-004 
2.406549e-004 
2.403525e-004 
2.401686e-004 
2.401026e-004 
2.401529e-004 
2.403171e-004 
2.405923e-004 
2.409749e-004 
2.414604e-004 
2.420438e-004 
2.427196e-004 
2.434812e-004 
2.443220e-004 
2.452343e-004 
2.462104e-004 
2.472417e-004 
2.483194e-004 
2.494343e-004 
2.505770e-004 
2.517375e-004 
2.529060e-004 
2.540723e-004 
2.552263e-004 
2.563578e-004 
2.574565e-004 
2.585126e-004 
2.595163e-004 
2.604578e-004 
2.613280e-004 
2.621179e-004 
2.628186e-004 
2.634219e-004 
2.639195e-004 
2.643032e-004 
2.645654e-004 
2.646980e-004 
2.646950e-004 
1.000000e+000 
1.000000e+000 
2.991945e-004 
2.998912e-004 
3.006274e-004 
3.014002e-004 
3.022059e-004 
3.030394e-004 
3.038950e-004 
3.047666e-004 
3.056479e-004 
3.065324e-004 
3.074139e-004 
3.082862e-004 
3.091433e-004 
3.099798e-004 
3.107904e-004 
3.115703e-004 
3.123151e-004 
3.130207e-004 
3.136836e-004 
3.143005e-004 
3.148684e-004 
3.153848e-004 
3.158474e-004 
3.162542e-004 
3.166033e-004 
3.168931e-004 
3.171223e-004 
3.172896e-004 
3.173940e-004 
3.174343e-004 
3.174099e-004 
3.173197e-004 
3.171632e-004 
3.169397e-004 
3.166487e-004 
3.162895e-004 
3.158619e-004 
3.153654e-004 
3.147997e-004 
3.141647e-004 
3.134601e-004 
3.126860e-004 
3.118425e-004 
3.109297e-004 
3.099479e-004 
3.088977e-004 
3.077797e-004 
3.065947e-004 
3.053437e-004 
3.040279e-004 
3.026487e-004 
3.012078e-004 
2.997071e-004 
2.981488e-004 
2.965353e-004 
2.948693e-004 
2.931537e-004 
2.913920e-004 
2.895875e-004 
2.877442e-004 
2.858663e-004 
2.839583e-004 
2.820248e-004 
2.800708e-004 
2.781018e-004 
2.761231e-004 
2.741406e-004 
2.721602e-004 
2.701882e-004 
2.682309e-004 
2.662946e-004 
2.643861e-004 
2.625120e-004 
2.606789e-004 
2.588934e-004 
2.571623e-004 
2.554919e-004 
2.538887e-004 
2.523588e-004 
2.509082e-004 
2.495426e-004 
2.482672e-004 
2.470871e-004 
2.460068e-004 
2.450303e-004 
2.441612e-004 
2.434027e-004 
2.427570e-004 
2.422262e-004 
2.418114e-004 
2.415132e-004 
2.413315e-004 
2.412655e-004 
2.413137e-004 
2.414738e-004 
2.417431e-004 
2.421180e-004 
2.425941e-004 
2.431667e-004 
2.438301e-004 
2.445782e-004 
2.454043e-004 
2.463012e-004 
2.472611e-004 
2.482759e-004 
2.493370e-004 
2.504355e-004 
2.515623e-004 
2.527079e-004 
2.538628e-004 
2.550172e-004 
2.561615e-004 
2.572860e-004 
2.583811e-004 
2.594373e-004 
2.604454e-004 
2.613963e-004 
2.622814e-004 
2.630921e-004 
2.638205e-004 
2.644587e-004 
2.649993e-004 
2.654350e-004 
2.657594e-004 
2.659657e-004 
2.660494e-004 
1.000000e+000 
1.000000e+000 
2.977225e-004 
2.985599e-004 
2.994171e-004 
3.002925e-004 
3.011836e-004 
3.020870e-004 
3.029986e-004 
3.039138e-004 
3.048275e-004 
3.057348e-004 
3.066307e-004 
3.075103e-004 
3.083687e-004 
3.092016e-004 
3.100046e-004 
3.107738e-004 
3.115056e-004 
3.121968e-004 
3.128444e-004 
3.134456e-004 
3.139982e-004 
3.144998e-004 
3.149487e-004 
3.153432e-004 
3.156817e-004 
3.159629e-004 
3.161856e-004 
3.163488e-004 
3.164514e-004 
3.164927e-004 
3.164717e-004 
3.163878e-004 
3.162403e-004 
3.160286e-004 
3.157521e-004 
3.154102e-004 
3.150026e-004 
3.145288e-004 
3.139884e-004 
3.133812e-004 
3.127070e-004 
3.119655e-004 
3.111569e-004 
3.102812e-004 
3.093386e-004 
3.083295e-004 
3.072544e-004 
3.061139e-004 
3.049090e-004 
3.036406e-004 
3.023102e-004 
3.009191e-004 
2.994692e-004 
2.979624e-004 
2.964010e-004 
2.947875e-004 
2.931248e-004 
2.914161e-004 
2.896646e-004 
2.878742e-004 
2.860488e-004 
2.841927e-004 
2.823106e-004 
2.804073e-004 
2.784879e-004 
2.765579e-004 
2.746228e-004 
2.726887e-004 
2.707614e-004 
2.688473e-004 
2.669528e-004 
2.650843e-004 
2.632483e-004 
2.614516e-004 
2.597006e-004 
2.580020e-004 
2.563622e-004 
2.547875e-004 
2.532842e-004 
2.518580e-004 
2.505148e-004 
2.492598e-004 
2.480979e-004 
2.470339e-004 
2.460717e-004 
2.452150e-004 
2.444668e-004 
2.438297e-004 
2.433056e-004 
2.428957e-004 
2.426007e-004 
2.424205e-004 
2.423544e-004 
2.424010e-004 
2.425582e-004 
2.428233e-004 
2.431926e-004 
2.436622e-004 
2.442271e-004 
2.448820e-004 
2.456210e-004 
2.464374e-004 
2.473243e-004 
2.482740e-004 
2.492787e-004 
2.503301e-004 
2.514194e-004 
2.525379e-004 
2.536765e-004 
2.548258e-004 
2.559768e-004 
2.571200e-004 
2.582462e-004 
2.593462e-004 
2.604112e-004 
2.614323e-004 
2.624010e-004 
2.633091e-004 
2.641488e-004 
2.649126e-004 
2.655932e-004 
2.661840e-004 
2.666787e-004 
2.670716e-004 
2.673574e-004 
2.675324e-004 
1.000000e+000 
1.000000e+000 
2.962300e-004 
2.972082e-004 
2.981881e-004 
2.991689e-004 
3.001496e-004 
3.011277e-004 
3.021007e-004 
3.030651e-004 
3.040173e-004 
3.049536e-004 
3.058702e-004 
3.067632e-004 
3.076290e-004 
3.084640e-004 
3.092651e-004 
3.100291e-004 
3.107532e-004 
3.114349e-004 
3.120717e-004 
3.126616e-004 
3.132028e-004 
3.136935e-004 
3.141322e-004 
3.145176e-004 
3.148484e-004 
3.151237e-004 
3.153425e-004 
3.155038e-004 
3.156068e-004 
3.156509e-004 
3.156352e-004 
3.155591e-004 
3.154220e-004 
3.152233e-004 
3.149624e-004 
3.146388e-004 
3.142519e-004 
3.138014e-004 
3.132868e-004 
3.127077e-004 
3.120639e-004 
3.113552e-004 
3.105813e-004 
3.097423e-004 
3.088384e-004 
3.078696e-004 
3.068365e-004 
3.057395e-004 
3.045793e-004 
3.033569e-004 
3.020734e-004 
3.007302e-004 
2.993287e-004 
2.978710e-004 
2.963591e-004 
2.947953e-004 
2.931824e-004 
2.915233e-004 
2.898213e-004 
2.880799e-004 
2.863029e-004 
2.844946e-004 
2.826594e-004 
2.808020e-004 
2.789275e-004 
2.770411e-004 
2.751483e-004 
2.732550e-004 
2.713671e-004 
2.694907e-004 
2.676322e-004 
2.657980e-004 
2.639946e-004 
2.622285e-004 
2.605063e-004 
2.588346e-004 
2.572198e-004 
2.556682e-004 
2.541861e-004 
2.527793e-004 
2.514535e-004 
2.502142e-004 
2.490662e-004 
2.480143e-004 
2.470626e-004 
2.462148e-004 
2.454739e-004 
2.448427e-004 
2.443230e-004 
2.439162e-004 
2.436231e-004 
2.434436e-004 
2.433772e-004 
2.434225e-004 
2.435775e-004 
2.438395e-004 
2.442051e-004 
2.446704e-004 
2.452306e-004 
2.458805e-004 
2.466143e-004 
2.474255e-004 
2.483072e-004 
2.492522e-004 
2.502526e-004 
2.513004e-004 
2.523872e-004 
2.535044e-004 
2.546432e-004 
2.557947e-004 
2.569499e-004 
2.580999e-004 
2.592358e-004 
2.603489e-004 
2.614306e-004 
2.624726e-004 
2.634669e-004 
2.644057e-004 
2.652817e-004 
2.660879e-004 
2.668178e-004 
2.674652e-004 
2.680247e-004 
2.684913e-004 
2.688609e-004 
2.691305e-004 
1.000000e+000 
1.000000e+000 
2.947363e-004 
2.958546e-004 
2.969578e-004 
2.980459e-004 
2.991189e-004 
3.001754e-004 
3.012139e-004 
3.022322e-004 
3.032279e-004 
3.041983e-004 
3.051408e-004 
3.060526e-004 
3.069310e-004 
3.077736e-004 
3.085778e-004 
3.093415e-004 
3.100626e-004 
3.107391e-004 
3.113695e-004 
3.119522e-004 
3.124858e-004 
3.129690e-004 
3.134009e-004 
3.137803e-004 
3.141065e-004 
3.143786e-004 
3.145959e-004 
3.147576e-004 
3.148632e-004 
3.149120e-004 
3.149033e-004 
3.148367e-004 
3.147115e-004 
3.145271e-004 
3.142830e-004 
3.139786e-004 
3.136134e-004 
3.131869e-004 
3.126986e-004 
3.121480e-004 
3.115349e-004 
3.108589e-004 
3.101197e-004 
3.093173e-004 
3.084515e-004 
3.075225e-004 
3.065305e-004 
3.054759e-004 
3.043593e-004 
3.031815e-004 
3.019434e-004 
3.006461e-004 
2.992912e-004 
2.978803e-004 
2.964153e-004 
2.948985e-004 
2.933324e-004 
2.917198e-004 
2.900638e-004 
2.883677e-004 
2.866354e-004 
2.848707e-004 
2.830781e-004 
2.812622e-004 
2.794279e-004 
2.775802e-004 
2.757248e-004 
2.738672e-004 
2.720134e-004 
2.701694e-004 
2.683415e-004 
2.665361e-004 
2.647596e-004 
2.630186e-004 
2.613197e-004 
2.596693e-004 
2.580741e-004 
2.565403e-004 
2.550741e-004 
2.536815e-004 
2.523683e-004 
2.511399e-004 
2.500014e-004 
2.489575e-004 
2.480124e-004 
2.471698e-004 
2.464331e-004 
2.458049e-004 
2.452872e-004 
2.448816e-004 
2.445887e-004 
2.444089e-004 
2.443415e-004 
2.443853e-004 
2.445384e-004 
2.447983e-004 
2.451617e-004 
2.456246e-004 
2.461825e-004 
2.468303e-004 
2.475623e-004 
2.483722e-004 
2.492533e-004 
2.501983e-004 
2.511998e-004 
2.522498e-004 
2.533402e-004 
2.544625e-004 
2.556082e-004 
2.567687e-004 
2.579353e-004 
2.590995e-004 
2.602525e-004 
2.613861e-004 
2.624920e-004 
2.635623e-004 
2.645894e-004 
2.655659e-004 
2.664850e-004 
2.673401e-004 
2.681252e-004 
2.688348e-004 
2.694640e-004 
2.700086e-004 
2.704653e-004 
2.708315e-004 
1.000000e+000 
1.000000e+000 
2.932589e-004 
2.945160e-004 
2.957425e-004 
2.969389e-004 
2.981060e-004 
2.992435e-004 
3.003508e-004 
3.014267e-004 
3.024698e-004 
3.034787e-004 