# vtk DataFile Version 2.0
2D-ADE data file 
ASCII
DATASET RECTILINEAR_GRID
DIMENSIONS 128 128 1
X_COORDINATES 128 int
0 1 2 3 4 5 6 7 8 9 10 11 12 13 14 15 16 17 18 19 20 21 22 23 24 25 26 27 28 29 30 31 32 33 34 35 36 37 38 39 40 41 42 43 44 45 46 47 48 49 50 51 52 53 54 55 56 57 58 59 60 61 62 63 64 65 66 67 68 69 70 71 72 73 74 75 76 77 78 79 80 81 82 83 84 85 86 87 88 89 90 91 92 93 94 95 96 97 98 99 100 101 102 103 104 105 106 107 108 109 110 111 112 113 114 115 116 117 118 119 120 121 122 123 124 125 126 127 
Y_COORDINATES 128 int
0 1 2 3 4 5 6 7 8 9 10 11 12 13 14 15 16 17 18 19 20 21 22 23 24 25 26 27 28 29 30 31 32 33 34 35 36 37 38 39 40 41 42 43 44 45 46 47 48 49 50 51 52 53 54 55 56 57 58 59 60 61 62 63 64 65 66 67 68 69 70 71 72 73 74 75 76 77 78 79 80 81 82 83 84 85 86 87 88 89 90 91 92 93 94 95 96 97 98 99 100 101 102 103 104 105 106 107 108 109 110 111 112 113 114 115 116 117 118 119 120 121 122 123 124 125 126 127 
Z_COORDINATES 1 int
0
POINT_DATA 16384 
SCALARS density double 1
LOOKUP_TABLE default
1.000000e+000 
1.000000e+000 
1.000000e+000 
1.000000e+000 
1.000000e+000 
1.000000e+000 
1.000000e+000 
1.000000e+000 
1.000000e+000 
1.000000e+000 
1.000000e+000 
1.000000e+000 
1.000000e+000 
1.000000e+000 
1.000000e+000 
1.000000e+000 
1.000000e+000 
1.000000e+000 
1.000000e+000 
1.000000e+000 
1.000000e+000 
1.000000e+000 
1.000000e+000 
1.000000e+000 
1.000000e+000 
1.000000e+000 
1.000000e+000 
1.000000e+000 
1.000000e+000 
1.000000e+000 
1.000000e+000 
1.000000e+000 
1.000000e+000 
1.000000e+000 
1.000000e+000 
1.000000e+000 
1.000000e+000 
1.000000e+000 
1.000000e+000 
1.000000e+000 
1.000000e+000 
1.000000e+000 
1.000000e+000 
1.000000e+000 
1.000000e+000 
1.000000e+000 
1.000000e+000 
1.000000e+000 
1.000000e+000 
1.000000e+000 
1.000000e+000 
1.000000e+000 
1.000000e+000 
1.000000e+000 
1.000000e+000 
1.000000e+000 
1.000000e+000 
1.000000e+000 
1.000000e+000 
1.000000e+000 
1.000000e+000 
1.000000e+000 
1.000000e+000 
1.000000e+000 
1.000000e+000 
1.000000e+000 
1.000000e+000 
1.000000e+000 
1.000000e+000 
1.000000e+000 
1.000000e+000 
1.000000e+000 
1.000000e+000 
1.000000e+000 
1.000000e+000 
1.000000e+000 
1.000000e+000 
1.000000e+000 
1.000000e+000 
1.000000e+000 
1.000000e+000 
1.000000e+000 
1.000000e+000 
1.000000e+000 
1.000000e+000 
1.000000e+000 
1.000000e+000 
1.000000e+000 
1.000000e+000 
1.000000e+000 
1.000000e+000 
1.000000e+000 
1.000000e+000 
1.000000e+000 
1.000000e+000 
1.000000e+000 
1.000000e+000 
1.000000e+000 
1.000000e+000 
1.000000e+000 
1.000000e+000 
1.000000e+000 
1.000000e+000 
1.000000e+000 
1.000000e+000 
1.000000e+000 
1.000000e+000 
1.000000e+000 
1.000000e+000 
1.000000e+000 
1.000000e+000 
1.000000e+000 
1.000000e+000 
1.000000e+000 
1.000000e+000 
1.000000e+000 
1.000000e+000 
1.000000e+000 
1.000000e+000 
1.000000e+000 
1.000000e+000 
1.000000e+000 
1.000000e+000 
1.000000e+000 
1.000000e+000 
1.000000e+000 
1.000000e+000 
1.000000e+000 
1.000000e+000 
3.132001e-004 
3.131396e-004 
3.132312e-004 
3.135266e-004 
3.140279e-004 
3.146976e-004 
3.154999e-004 
3.164040e-004 
3.173825e-004 
3.184105e-004 
3.194664e-004 
3.205313e-004 
3.215888e-004 
3.226249e-004 
3.236275e-004 
3.245862e-004 
3.254923e-004 
3.263381e-004 
3.271173e-004 
3.278247e-004 
3.284558e-004 
3.290070e-004 
3.294752e-004 
3.298580e-004 
3.301535e-004 
3.303602e-004 
3.304769e-004 
3.305028e-004 
3.304372e-004 
3.302799e-004 
3.300305e-004 
3.296891e-004 
3.292557e-004 
3.287306e-004 
3.281140e-004 
3.274063e-004 
3.266081e-004 
3.257197e-004 
3.247419e-004 
3.236754e-004 
3.225210e-004 
3.212796e-004 
3.199522e-004 
3.185399e-004 
3.170439e-004 
3.154656e-004 
3.138066e-004 
3.120685e-004 
3.102533e-004 
3.083630e-004 
3.063999e-004 
3.043665e-004 
3.022655e-004 
3.000999e-004 
2.978730e-004 
2.955883e-004 
2.932495e-004 
2.908607e-004 
2.884263e-004 
2.859508e-004 
2.834392e-004 
2.808967e-004 
2.783287e-004 
2.757410e-004 
2.731396e-004 
2.705306e-004 
2.679207e-004 
2.653164e-004 
2.627247e-004 
2.601525e-004 
2.576071e-004 
2.550957e-004 
2.526257e-004 
2.502045e-004 
2.478394e-004 
2.455379e-004 
2.433072e-004 
2.411545e-004 
2.390867e-004 
2.371107e-004 
2.352330e-004 
2.334599e-004 
2.317971e-004 
2.302503e-004 
2.288244e-004 
2.275241e-004 
2.263534e-004 
2.253159e-004 
2.244144e-004 
2.236512e-004 
2.230280e-004 
2.225456e-004 
2.222044e-004 
2.220038e-004 
2.219425e-004 
2.220185e-004 
2.222290e-004 
2.225705e-004 
2.230385e-004 
2.236279e-004 
2.243328e-004 
2.251464e-004 
2.260614e-004 
2.270694e-004 
2.281616e-004 
2.293281e-004 
2.305587e-004 
2.318420e-004 
2.331664e-004 
2.345191e-004 
2.358870e-004 
2.372560e-004 
2.386115e-004 
2.399380e-004 
2.412195e-004 
2.424389e-004 
2.435788e-004 
2.446208e-004 
2.455461e-004 
2.463357e-004 
2.469715e-004 
2.474361e-004 
2.477142e-004 
2.477997e-004 
2.477446e-004 
2.476282e-004 
1.000000e+000 
1.000000e+000 
3.132598e-004 
3.131994e-004 
3.132992e-004 
3.135802e-004 
3.140241e-004 
3.146139e-004 
3.153247e-004 
3.161309e-004 
3.170080e-004 
3.179343e-004 
3.188901e-004 
3.198579e-004 
3.208226e-004 
3.217705e-004 
3.226901e-004 
3.235713e-004 
3.244054e-004 
3.251849e-004 
3.259034e-004 
3.265556e-004 
3.271368e-004 
3.276434e-004 
3.280720e-004 
3.284202e-004 
3.286858e-004 
3.288670e-004 
3.289627e-004 
3.289717e-004 
3.288933e-004 
3.287270e-004 
3.284725e-004 
3.281295e-004 
3.276980e-004 
3.271782e-004 
3.265703e-004 
3.258745e-004 
3.250914e-004 
3.242213e-004 
3.232648e-004 
3.222227e-004 
3.210957e-004 
3.198847e-004 
3.185907e-004 
3.172148e-004 
3.157581e-004 
3.142222e-004 
3.126084e-004 
3.109186e-004 
3.091545e-004 
3.073183e-004 
3.054121e-004 
3.034384e-004 
3.014000e-004 
2.992997e-004 
2.971408e-004 
2.949267e-004 
2.926611e-004 
2.903478e-004 
2.879912e-004 
2.855958e-004 
2.831662e-004 
2.807075e-004 
2.782251e-004 
2.757244e-004 
2.732112e-004 
2.706915e-004 
2.681717e-004 
2.656580e-004 
2.631570e-004 
2.606756e-004 
2.582205e-004 
2.557988e-004 
2.534175e-004 
2.510836e-004 
2.488041e-004 
2.465861e-004 
2.444366e-004 
2.423622e-004 
2.403697e-004 
2.384655e-004 
2.366557e-004 
2.349463e-004 
2.333428e-004 
2.318504e-004 
2.304738e-004 
2.292174e-004 
2.280849e-004 
2.270796e-004 
2.262041e-004 
2.254607e-004 
2.248506e-004 
2.243748e-004 
2.240332e-004 
2.238254e-004 
2.237500e-004 
2.238050e-004 
2.239875e-004 
2.242942e-004 
2.247206e-004 
2.252618e-004 
2.259120e-004 
2.266648e-004 
2.275129e-004 
2.284484e-004 
2.294627e-004 
2.305464e-004 
2.316895e-004 
2.328813e-004 
2.341106e-004 
2.353653e-004 
2.366328e-004 
2.379000e-004 
2.391529e-004 
2.403771e-004 
2.415575e-004 
2.426787e-004 
2.437246e-004 
2.446788e-004 
2.455249e-004 
2.462469e-004 
2.468294e-004 
2.472599e-004 
2.475319e-004 
2.476495e-004 
2.476306e-004 
2.475154e-004 
1.000000e+000 
1.000000e+000 
3.131675e-004 
3.130990e-004 
3.131990e-004 
3.134660e-004 
3.138743e-004 
3.144117e-004 
3.150567e-004 
3.157882e-004 
3.165854e-004 
3.174293e-004 
3.183022e-004 
3.191882e-004 
3.200731e-004 
3.209445e-004 
3.217911e-004 
3.226034e-004 
3.233730e-004 
3.240925e-004 
3.247557e-004 
3.253572e-004 
3.258925e-004 
3.263576e-004 
3.267493e-004 
3.270650e-004 
3.273023e-004 
3.274596e-004 
3.275352e-004 
3.275282e-004 
3.274375e-004 
3.272626e-004 
3.270030e-004 
3.266585e-004 
3.262289e-004 
3.257143e-004 
3.251147e-004 
3.244305e-004 
3.236619e-004 
3.228095e-004 
3.218737e-004 
3.208552e-004 
3.197547e-004 
3.185732e-004 
3.173115e-004 
3.159707e-004 
3.145521e-004 
3.130569e-004 
3.114868e-004 
3.098433e-004 
3.081283e-004 
3.063438e-004 
3.044921e-004 
3.025755e-004 
3.005967e-004 
2.985586e-004 
2.964643e-004 
2.943171e-004 
2.921206e-004 
2.898787e-004 
2.875955e-004 
2.852753e-004 
2.829227e-004 
2.805427e-004 
2.781403e-004 
2.757209e-004 
2.732900e-004 
2.708534e-004 
2.684172e-004 
2.659876e-004 
2.635707e-004 
2.611732e-004 
2.588016e-004 
2.564626e-004 
2.541630e-004 
2.519094e-004 
2.497086e-004 
2.475673e-004 
2.454921e-004 
2.434895e-004 
2.415659e-004 
2.397273e-004 
2.379796e-004 
2.363285e-004 
2.347791e-004 
2.333364e-004 
2.320049e-004 
2.307886e-004 
2.296910e-004 
2.287153e-004 
2.278638e-004 
2.271386e-004 
2.265409e-004 
2.260715e-004 
2.257302e-004 
2.255164e-004 
2.254289e-004 
2.254656e-004 
2.256236e-004 
2.258996e-004 
2.262894e-004 
2.267881e-004 
2.273901e-004 
2.280892e-004 
2.288783e-004 
2.297497e-004 
2.306953e-004 
2.317060e-004 
2.327722e-004 
2.338838e-004 
2.350298e-004 
2.361989e-004 
2.373792e-004 
2.385582e-004 
2.397227e-004 
2.408594e-004 
2.419543e-004 
2.429930e-004 
2.439610e-004 
2.448436e-004 
2.456263e-004 
2.462955e-004 
2.468383e-004 
2.472443e-004 
2.475076e-004 
2.476321e-004 
2.476131e-004 
2.474623e-004 
1.000000e+000 
1.000000e+000 
3.128711e-004 
3.128168e-004 
3.129316e-004 
3.131994e-004 
3.135944e-004 
3.141016e-004 
3.147027e-004 
3.153805e-004 
3.161175e-004 
3.168967e-004 
3.177027e-004 
3.185211e-004 
3.193390e-004 
3.201448e-004 
3.209282e-004 
3.216800e-004 
3.223924e-004 
3.230583e-004 
3.236715e-004 
3.242270e-004 
3.247201e-004 
3.251471e-004 
3.255046e-004 
3.257900e-004 
3.260010e-004 
3.261357e-004 
3.261925e-004 
3.261703e-004 
3.260680e-004 
3.258850e-004 
3.256207e-004 
3.252748e-004 
3.248470e-004 
3.243374e-004 
3.237460e-004 
3.230730e-004 
3.223186e-004 
3.214832e-004 
3.205675e-004 
3.195719e-004 
3.184971e-004 
3.173440e-004 
3.161136e-004 
3.148067e-004 
3.134247e-004 
3.119689e-004 
3.104407e-004 
3.088417e-004 
3.071738e-004 
3.054388e-004 
3.036391e-004 
3.017770e-004 
2.998550e-004 
2.978759e-004 
2.958428e-004 
2.937589e-004 
2.916278e-004 
2.894531e-004 
2.872389e-004 
2.849893e-004 
2.827090e-004 
2.804024e-004 
2.780747e-004 
2.757310e-004 
2.733766e-004 
2.710172e-004 
2.686585e-004 
2.663065e-004 
2.639673e-004 
2.616472e-004 
2.593524e-004 
2.570894e-004 
2.548646e-004 
2.526846e-004 
2.505558e-004 
2.484845e-004 
2.464773e-004 
2.445402e-004 
2.426793e-004 
2.409004e-004 
2.392093e-004 
2.376111e-004 
2.361109e-004 
2.347134e-004 
2.334229e-004 
2.322431e-004 
2.311774e-004 
2.302287e-004 
2.293993e-004 
2.286910e-004 
2.281049e-004 
2.276417e-004 
2.273012e-004 
2.270828e-004 
2.269851e-004 
2.270061e-004 
2.271430e-004 
2.273924e-004 
2.277504e-004 
2.282120e-004 
2.287719e-004 
2.294241e-004 
2.301617e-004 
2.309774e-004 
2.318631e-004 
2.328103e-004 
2.338098e-004 
2.348517e-004 
2.359258e-004 
2.370213e-004 
2.381268e-004 
2.392306e-004 
2.403203e-004 
2.413835e-004 
2.424071e-004 
2.433781e-004 
2.442832e-004 
2.451091e-004 
2.458430e-004 
2.464726e-004 
2.469869e-004 
2.473772e-004 
2.476356e-004 
2.477588e-004 
2.477308e-004 
2.475464e-004 
1.000000e+000 
1.000000e+000 
3.123669e-004 
3.123702e-004 
3.125219e-004 
3.128056e-004 
3.132023e-004 
3.136966e-004 
3.142723e-004 
3.149146e-004 
3.156081e-004 
3.163384e-004 
3.170918e-004 
3.178556e-004 
3.186181e-004 
3.193688e-004 
3.200981e-004 
3.207977e-004 
3.214600e-004 
3.220784e-004 
3.226471e-004 
3.231611e-004 
3.236161e-004 
3.240083e-004 
3.243346e-004 
3.245921e-004 
3.247787e-004 
3.248925e-004 
3.249318e-004 
3.248955e-004 
3.247824e-004 
3.245919e-004 
3.243233e-004 
3.239763e-004 
3.235505e-004 
3.230459e-004 
3.224625e-004 
3.218003e-004 
3.210598e-004 
3.202411e-004 
3.193448e-004 
3.183713e-004 
3.173215e-004 
3.161959e-004 
3.149956e-004 
3.137216e-004 
3.123749e-004 
3.109569e-004 
3.094689e-004 
3.079126e-004 
3.062898e-004 
3.046022e-004 
3.028521e-004 
3.010418e-004 
2.991738e-004 
2.972507e-004 
2.952756e-004 
2.932515e-004 
2.911820e-004 
2.890706e-004 
2.869211e-004 
2.847378e-004 
2.825249e-004 
2.802869e-004 
2.780287e-004 
2.757553e-004 
2.734719e-004 
2.711839e-004 
2.688969e-004 
2.666166e-004 
2.643489e-004 
2.620998e-004 
2.598755e-004 
2.576821e-004 
2.555258e-004 
2.534130e-004 
2.513498e-004 
2.493424e-004 
2.473969e-004 
2.455193e-004 
2.437154e-004 
2.419908e-004 
2.403508e-004 
2.388006e-004 
2.373451e-004 
2.359885e-004 
2.347351e-004 
2.335884e-004 
2.325517e-004 
2.316277e-004 
2.308185e-004 
2.301257e-004 
2.295506e-004 
2.290936e-004 
2.287545e-004 
2.285326e-004 
2.284266e-004 
2.284344e-004 
2.285533e-004 
2.287801e-004 
2.291107e-004 
2.295405e-004 
2.300642e-004 
2.306759e-004 
2.313691e-004 
2.321368e-004 
2.329710e-004 
2.338637e-004 
2.348059e-004 
2.357884e-004 
2.368012e-004 
2.378342e-004 
2.388766e-004 
2.399172e-004 
2.409446e-004 
2.419471e-004 
2.429126e-004 
2.438292e-004 
2.446845e-004 
2.454667e-004 
2.461642e-004 
2.467659e-004 
2.472614e-004 
2.476422e-004 
2.478989e-004 
2.480237e-004 
2.480012e-004 
2.478200e-004 
1.000000e+000 
1.000000e+000 
3.116909e-004 
3.117748e-004 
3.119812e-004 
3.122986e-004 
3.127128e-004 
3.132097e-004 
3.137758e-004 
3.143978e-004 
3.150627e-004 
3.157580e-004 
3.164718e-004 
3.171929e-004 
3.179108e-004 
3.186160e-004 
3.193000e-004 
3.199550e-004 
3.205740e-004 
3.211510e-004 
3.216804e-004 
3.221576e-004 
3.225785e-004 
3.229393e-004 
3.232372e-004 
3.234694e-004 
3.236337e-004 
3.237283e-004 
3.237516e-004 
3.237023e-004 
3.235794e-004 
3.233821e-004 
3.231097e-004 
3.227619e-004 
3.223383e-004 
3.218388e-004 
3.212633e-004 
3.206119e-004 
3.198848e-004 
3.190824e-004 
3.182049e-004 
3.172530e-004 
3.162273e-004 
3.151284e-004 
3.139573e-004 
3.127148e-004 
3.114021e-004 
3.100205e-004 
3.085712e-004 
3.070558e-004 
3.054761e-004 
3.038338e-004 
3.021310e-004 
3.003700e-004 
2.985531e-004 
2.966831e-004 
2.947627e-004 
2.927951e-004 
2.907835e-004 
2.887315e-004 
2.866428e-004 
2.845213e-004 
2.823714e-004 
2.801973e-004 
2.780037e-004 
2.757955e-004 
2.735777e-004 
2.713556e-004 
2.691345e-004 
2.669201e-004 
2.647179e-004 
2.625340e-004 
2.603740e-004 
2.582441e-004 
2.561503e-004 
2.540986e-004 
2.520950e-004 
2.501454e-004 
2.482559e-004 
2.464320e-004 
2.446795e-004 
2.430038e-004 
2.414100e-004 
2.399032e-004 
2.384877e-004 
2.371681e-004 
2.359482e-004 
2.348314e-004 
2.338209e-004 
2.329192e-004 
2.321284e-004 
2.314501e-004 
2.308853e-004 
2.304343e-004 
2.300972e-004 
2.298730e-004 
2.297604e-004 
2.297574e-004 
2.298613e-004 
2.300690e-004 
2.303765e-004 
2.307794e-004 
2.312724e-004 
2.318498e-004 
2.325054e-004 
2.332323e-004 
2.340230e-004 
2.348696e-004 
2.357635e-004 
2.366960e-004 
2.376576e-004 
2.386385e-004 
2.396286e-004 
2.406174e-004 
2.415941e-004 
2.425478e-004 
2.434673e-004 
2.443415e-004 
2.451592e-004 
2.459095e-004 
2.465818e-004 
2.471659e-004 
2.476521e-004 
2.480314e-004 
2.482942e-004 
2.484307e-004 
2.484283e-004 
2.482763e-004 
1.000000e+000 
1.000000e+000 
3.108767e-004 
3.110542e-004 
3.113298e-004 
3.116958e-004 
3.121408e-004 
3.126538e-004 
3.132234e-004 
3.138384e-004 
3.144875e-004 
3.151601e-004 
3.158458e-004 
3.165348e-004 
3.172179e-004 
3.178867e-004 
3.185334e-004 
3.191511e-004 
3.197334e-004 
3.202747e-004 
3.207700e-004 
3.212149e-004 
3.216055e-004 
3.219385e-004 
3.222109e-004 
3.224203e-004 
3.225645e-004 
3.226418e-004 
3.226506e-004 
3.225896e-004 
3.224579e-004 
3.222546e-004 
3.219791e-004 
3.216310e-004 
3.212098e-004 
3.207155e-004 
3.201480e-004 
3.195072e-004 
3.187934e-004 
3.180068e-004 
3.171478e-004 
3.162168e-004 
3.152145e-004 
3.141414e-004 
3.129984e-004 
3.117865e-004 
3.105065e-004 
3.091598e-004 
3.077476e-004 
3.062714e-004 
3.047329e-004 
3.031337e-004 
3.014760e-004 
2.997617e-004 
2.979934e-004 
2.961736e-004 
2.943049e-004 
2.923904e-004 
2.904333e-004 
2.884369e-004 
2.864049e-004 
2.843412e-004 
2.822498e-004 
2.801350e-004 
2.780012e-004 
2.758533e-004 
2.736960e-004 
2.715345e-004 
2.693740e-004 
2.672198e-004 
2.650776e-004 
2.629530e-004 
2.608516e-004 
2.587794e-004 
2.567421e-004 
2.547456e-004 
2.527958e-004 
2.508984e-004 
2.490592e-004 
2.472837e-004 
2.455774e-004 
2.439455e-004 
2.423931e-004 
2.409250e-004 
2.395455e-004 
2.382590e-004 
2.370690e-004 
2.359791e-004 
2.349921e-004 
2.341106e-004 
2.333365e-004 
2.326714e-004 
2.321162e-004 
2.316712e-004 
2.313364e-004 
2.311109e-004 
2.309933e-004 
2.309817e-004 
2.310735e-004 
2.312656e-004 
2.315540e-004 
2.319344e-004 
2.324019e-004 
2.329509e-004 
2.335752e-004 
2.342682e-004 
2.350227e-004 
2.358311e-004 
2.366853e-004 
2.375767e-004 
2.384964e-004 
2.394350e-004 
2.403829e-004 
2.413303e-004 
2.422671e-004 
2.431829e-004 
2.440675e-004 
2.449104e-004 
2.457015e-004 
2.464306e-004 
2.470879e-004 
2.476640e-004 
2.481498e-004 
2.485362e-004 
2.488143e-004 
2.489745e-004 
2.490058e-004 
2.488999e-004 
1.000000e+000 
1.000000e+000 
3.099536e-004 
3.102327e-004 
3.105879e-004 
3.110134e-004 
3.115007e-004 
3.120414e-004 
3.126260e-004 
3.132452e-004 
3.138897e-004 
3.145503e-004 
3.152180e-004 
3.158845e-004 
3.165417e-004 
3.171822e-004 
3.177992e-004 
3.183864e-004 
3.189381e-004 
3.194492e-004 
3.199153e-004 
3.203322e-004 
3.206964e-004 
3.210049e-004 
3.212549e-004 
3.214441e-004 
3.215704e-004 
3.216322e-004 
3.216281e-004 
3.215568e-004 
3.214174e-004 
3.212091e-004 
3.209312e-004 
3.205832e-004 
3.201649e-004 
3.196761e-004 
3.191165e-004 
3.184864e-004 
3.177856e-004 
3.170146e-004 
3.161736e-004 
3.152630e-004 
3.142833e-004 
3.132353e-004 
3.121195e-004 
3.109369e-004 
3.096885e-004 
3.083754e-004 
3.069988e-004 
3.055601e-004 
3.040608e-004 
3.025028e-004 
3.008878e-004 
2.992180e-004 
2.974956e-004 
2.957231e-004 
2.939032e-004 
2.920386e-004 
2.901325e-004 
2.881882e-004 
2.862091e-004 
2.841991e-004 
2.821620e-004 
2.801021e-004 
2.780236e-004 
2.759311e-004 
2.738294e-004 
2.717234e-004 
2.696181e-004 
2.675190e-004 
2.654312e-004 
2.633604e-004 
2.613121e-004 
2.592919e-004 
2.573056e-004 
2.553588e-004 
2.534572e-004 
2.516065e-004 
2.498123e-004 
2.480799e-004 
2.464147e-004 
2.448219e-004 
2.433062e-004 
2.418725e-004 
2.405249e-004 
2.392676e-004 
2.381043e-004 
2.370382e-004 
2.360722e-004 
2.352087e-004 
2.344497e-004 
2.337966e-004 
2.332503e-004 
2.328112e-004 
2.324790e-004 
2.322531e-004 
2.321320e-004 
2.321138e-004 
2.321961e-004 
2.323756e-004 
2.326487e-004 
2.330110e-004 
2.334578e-004 
2.339837e-004 
2.345826e-004 
2.352482e-004 
2.359735e-004 
2.367513e-004 
2.375735e-004 
2.384322e-004 
2.393186e-004 
2.402241e-004 
2.411393e-004 
2.420550e-004 
2.429617e-004 
2.438498e-004 
2.447096e-004 
2.455314e-004 
2.463059e-004 
2.470235e-004 
2.476754e-004 
2.482526e-004 
2.487467e-004 
2.491492e-004 
2.494516e-004 
2.496459e-004 
2.497224e-004 
2.496746e-004 
1.000000e+000 
1.000000e+000 
3.089472e-004 
3.093335e-004 
3.097754e-004 
3.102686e-004 
3.108073e-004 
3.113850e-004 
3.119942e-004 
3.126274e-004 
3.132767e-004 
3.139346e-004 
3.145933e-004 
3.152458e-004 
3.158851e-004 
3.165048e-004 
3.170988e-004 
3.176618e-004 
3.181886e-004 
3.186748e-004 
3.191163e-004 
3.195095e-004 
3.198511e-004 
3.201383e-004 
3.203688e-004 
3.205403e-004 
3.206510e-004 
3.206994e-004 
3.206840e-004 
3.206038e-004 
3.204579e-004 
3.202455e-004 
3.199659e-004 
3.196188e-004 
3.192038e-004 
3.187207e-004 
3.181693e-004 
3.175497e-004 
3.168620e-004 
3.161063e-004 
3.152829e-004 
3.143921e-004 
3.134346e-004 
3.124107e-004 
3.113213e-004 
3.101671e-004 
3.089491e-004 
3.076682e-004 
3.063256e-004 
3.049228e-004 
3.034611e-004 
3.019421e-004 
3.003678e-004 
2.987401e-004 
2.970611e-004 
2.953332e-004 
2.935590e-004 
2.917413e-004 
2.898829e-004 
2.879871e-004 
2.860573e-004 
2.840971e-004 
2.821103e-004 
2.801009e-004 
2.780732e-004 
2.760316e-004 
2.739807e-004 
2.719253e-004 
2.698704e-004 
2.678211e-004 
2.657826e-004 
2.637603e-004 
2.617596e-004 
2.597861e-004 
2.578453e-004 
2.559428e-004 
2.540842e-004 
2.522749e-004 
2.505205e-004 
2.488263e-004 
2.471974e-004 
2.456388e-004 
2.441555e-004 
2.427519e-004 
2.414324e-004 
2.402008e-004 
2.390608e-004 
2.380156e-004 
2.370680e-004 
2.362205e-004 
2.354748e-004 
2.348325e-004 
2.342944e-004 
2.338608e-004 
2.335316e-004 
2.333060e-004 
2.331827e-004 
2.331598e-004 
2.332349e-004 
2.334048e-004 
2.336659e-004 
2.340142e-004 
2.344448e-004 
2.349525e-004 
2.355316e-004 
2.361758e-004 
2.368784e-004 
2.376324e-004 
2.384301e-004 
2.392638e-004 
2.401252e-004 
2.410059e-004 
2.418972e-004 
2.427903e-004 
2.436761e-004 
2.445458e-004 
2.453901e-004 
2.462002e-004 
2.469672e-004 
2.476825e-004 
2.483376e-004 
2.489244e-004 
2.494351e-004 
2.498619e-004 
2.501973e-004 
2.504342e-004 
2.505650e-004 
2.505842e-004 
1.000000e+000 
1.000000e+000 
3.078811e-004 
3.083775e-004 
3.089106e-004 
3.094777e-004 
3.100748e-004 
3.106972e-004 
3.113390e-004 
3.119942e-004 
3.126565e-004 
3.133196e-004 
3.139772e-004 
3.146231e-004 
3.152516e-004 
3.158571e-004 
3.164345e-004 
3.169791e-004 
3.174864e-004 
3.179525e-004 
3.183738e-004 
3.187472e-004 
3.190698e-004 
3.193391e-004 
3.195529e-004 
3.197093e-004 
3.198066e-004 
3.198434e-004 
3.198185e-004 
3.197309e-004 
3.195797e-004 
3.193642e-004 
3.190839e-004 
3.187383e-004 
3.183271e-004 
3.178501e-004 
3.173071e-004 
3.166982e-004 
3.160233e-004 
3.152828e-004 
3.144766e-004 
3.136053e-004 
3.126693e-004 
3.116690e-004 
3.106050e-004 
3.094782e-004 
3.082894e-004 
3.070395e-004 
3.057296e-004 
3.043610e-004 
3.029350e-004 
3.014533e-004 
2.999176e-004 
2.983297e-004 
2.966916e-004 
2.950058e-004 
2.932745e-004 
2.915006e-004 
2.896867e-004 
2.878361e-004 
2.859520e-004 
2.840378e-004 
2.820973e-004 
2.801344e-004 
2.781532e-004 
2.761581e-004 
2.741534e-004 
2.721439e-004 
2.701345e-004 
2.681300e-004 
2.661358e-004 
2.641569e-004 
2.621987e-004 
2.602667e-004 
2.583662e-004 
2.565029e-004 
2.546820e-004 
2.529091e-004 
2.511896e-004 
2.495286e-004 
2.479313e-004 
2.464026e-004 
2.449472e-004 
2.435697e-004 
2.422743e-004 
2.410649e-004 
2.399450e-004 
2.389179e-004 
2.379863e-004 
2.371526e-004 
2.364186e-004 
2.357857e-004 
2.352549e-004 
2.348266e-004 
2.345004e-004 
2.342758e-004 
2.341514e-004 
2.341254e-004 
2.341953e-004 
2.343583e-004 
2.346107e-004 
2.349485e-004 
2.353671e-004 
2.358613e-004 
2.364257e-004 
2.370541e-004 
2.377400e-004 
2.384767e-004 
2.392567e-004 
2.400726e-004 
2.409166e-004 
2.417804e-004 
2.426560e-004 
2.435347e-004 
2.444083e-004 
2.452680e-004 
2.461056e-004 
2.469125e-004 
2.476805e-004 
2.484017e-004 
2.490682e-004 
2.496725e-004 
2.502074e-004 
2.506660e-004 
2.510417e-004 
2.513284e-004 
2.515203e-004 
2.516129e-004 
1.000000e+000 
1.000000e+000 
3.067763e-004 
3.073838e-004 
3.080110e-004 
3.086562e-004 
3.093171e-004 
3.099901e-004 
3.106709e-004 
3.113549e-004 
3.120371e-004 
3.127124e-004 
3.133755e-004 
3.140215e-004 
3.146455e-004 
3.152428e-004 
3.158092e-004 
3.163406e-004 
3.168333e-004 
3.172838e-004 
3.176892e-004 
3.180466e-004 
3.183536e-004 
3.186080e-004 
3.188079e-004 
3.189516e-004 
3.190377e-004 
3.190650e-004 
3.190323e-004 
3.189387e-004 
3.187835e-004 
3.185661e-004 
3.182859e-004 
3.179425e-004 
3.175357e-004 
3.170652e-004 
3.165309e-004 
3.159328e-004 
3.152709e-004 
3.145453e-004 
3.137562e-004 
3.129039e-004 
3.119889e-004 
3.110114e-004 
3.099722e-004 
3.088718e-004 
3.077111e-004 
3.064910e-004 
3.052124e-004 
3.038765e-004 
3.024847e-004 
3.010383e-004 
2.995391e-004 
2.979888e-004 
2.963893e-004 
2.947429e-004 
2.930519e-004 
2.913189e-004 
2.895465e-004 
2.877377e-004 
2.858958e-004 
2.840241e-004 
2.821261e-004 
2.802057e-004 
2.782669e-004 
2.763139e-004 
2.743511e-004 
2.723829e-004 
2.704143e-004 
2.684500e-004 
2.664950e-004 
2.645546e-004 
2.626340e-004 
2.607385e-004 
2.588734e-004 
2.570441e-004 
2.552561e-004 
2.535147e-004 
2.518252e-004 
2.501927e-004 
2.486224e-004 
2.471191e-004 
2.456876e-004 
2.443322e-004 
2.430572e-004 
2.418665e-004 
2.407636e-004 
2.397517e-004 
2.388335e-004 
2.380114e-004 
2.372874e-004 
2.366627e-004 
2.361383e-004 
2.357147e-004 
2.353916e-004 
2.351684e-004 
2.350438e-004 
2.350161e-004 
2.350828e-004 
2.352412e-004 
2.354877e-004 
2.358183e-004 
2.362287e-004 
2.367138e-004 
2.372682e-004 
2.378859e-004 
2.385608e-004 
2.392861e-004 
2.400549e-004 
2.408598e-004 
2.416933e-004 
2.425476e-004 
2.434149e-004 
2.442871e-004 
2.451561e-004 
2.460140e-004 
2.468527e-004 
2.476643e-004 
2.484412e-004 
2.491758e-004 
2.498611e-004 
2.504900e-004 
2.510561e-004 
2.515531e-004 
2.519754e-004 
2.523178e-004 
2.525758e-004 
2.527460e-004 
1.000000e+000 
1.000000e+000 
3.056512e-004 
3.063697e-004 
3.070926e-004 
3.078188e-004 
3.085473e-004 
3.092756e-004 
3.100006e-004 
3.107190e-004 
3.114268e-004 
3.121200e-004 
3.127945e-004 
3.134462e-004 
3.140713e-004 
3.146658e-004 
3.152263e-004 
3.157493e-004 
3.162318e-004 
3.166709e-004 
3.170641e-004 
3.174091e-004 
3.177038e-004 
3.179463e-004 
3.181350e-004 
3.182685e-004 
3.183456e-004 
3.183652e-004 
3.183264e-004 
3.182283e-004 
3.180705e-004 
3.178522e-004 
3.175731e-004 
3.172327e-004 
3.168309e-004 
3.163674e-004 
3.158422e-004 
3.152550e-004 
3.146061e-004 
3.138954e-004 
3.131232e-004 
3.122896e-004 
3.113951e-004 
3.104399e-004 
3.094246e-004 
3.083498e-004 
3.072163e-004 
3.060247e-004 
3.047761e-004 
3.034715e-004 
3.021121e-004 
3.006993e-004 
2.992347e-004 
2.977199e-004 
2.961568e-004 
2.945474e-004 
2.928940e-004 
2.911990e-004 
2.894650e-004 
2.876950e-004 
2.858920e-004 
2.840591e-004 
2.822000e-004 
2.803184e-004 
2.784180e-004 
2.765030e-004 
2.745777e-004 
2.726465e-004 
2.707141e-004 
2.687853e-004 
2.668651e-004 
2.649584e-004 
2.630705e-004 
2.612066e-004 
2.593719e-004 
2.575720e-004 
2.558120e-004 
2.540973e-004 
2.524331e-004 
2.508246e-004 
2.492769e-004 
2.477947e-004 
2.463829e-004 
2.450457e-004 
2.437875e-004 
2.426120e-004 
2.415229e-004 
2.405233e-004 
2.396161e-004 
2.388035e-004 
2.380875e-004 
2.374696e-004 
2.369507e-004 
2.365311e-004 
2.362109e-004 
2.359894e-004 
2.358653e-004 
2.358370e-004 
2.359022e-004 
2.360581e-004 
2.363012e-004 
2.366278e-004 
2.370334e-004 
2.375133e-004 
2.380620e-004 
2.386740e-004 
2.393429e-004 
2.400625e-004 
2.408259e-004 
2.416260e-004 
2.424556e-004 
2.433071e-004 
2.441731e-004 
2.450459e-004 
2.459178e-004 
2.467810e-004 
2.476282e-004 
2.484518e-004 
2.492447e-004 
2.499999e-004 
2.507106e-004 
2.513707e-004 
2.519741e-004 
2.525153e-004 
2.529894e-004 
2.533922e-004 
2.537200e-004 
2.539704e-004 
1.000000e+000 
1.000000e+000 
3.045222e-004 
3.053510e-004 
3.061700e-004 
3.069791e-004 
3.077779e-004 
3.085650e-004 
3.093384e-004 
3.100956e-004 
3.108337e-004 
3.115498e-004 
3.122406e-004 
3.129031e-004 
3.135340e-004 
3.141304e-004 
3.146895e-004 
3.152084e-004 
3.156849e-004 
3.161164e-004 
3.165011e-004 
3.168370e-004 
3.171223e-004 
3.173557e-004 
3.175358e-004 
3.176615e-004 
3.177316e-004 
3.177455e-004 
3.177022e-004 
3.176013e-004 
3.174420e-004 
3.172240e-004 
3.169470e-004 
3.166105e-004 
3.162143e-004 
3.157584e-004 
3.152425e-004 
3.146667e-004 
3.140308e-004 
3.133351e-004 
3.125795e-004 
3.117644e-004 
3.108899e-004 
3.099565e-004 
3.089645e-004 
3.079145e-004 
3.068071e-004 
3.056430e-004 
3.044231e-004 
3.031484e-004 
3.018199e-004 
3.004391e-004 
2.990071e-004 
2.975258e-004 
2.959968e-004 
2.944220e-004 
2.928037e-004 
2.911440e-004 
2.894457e-004 
2.877113e-004 
2.859440e-004 
2.841467e-004 
2.823229e-004 
2.804762e-004 
2.786104e-004 
2.767294e-004 
2.748375e-004 
2.729391e-004 
2.710386e-004 
2.691409e-004 
2.672507e-004 
2.653732e-004 
2.635133e-004 
2.616763e-004 
2.598675e-004 
2.580921e-004 
2.563554e-004 
2.546628e-004 
2.530194e-004 
2.514304e-004 
2.499009e-004 
2.484356e-004 
2.470393e-004 
2.457165e-004 
2.444714e-004 
2.433078e-004 
2.422293e-004 
2.412392e-004 
2.403403e-004 
2.395350e-004 
2.388252e-004 
2.382125e-004 
2.376978e-004 
2.372816e-004 
2.369639e-004 
2.367441e-004 
2.366211e-004 
2.365932e-004 
2.366582e-004 
2.368134e-004 
2.370555e-004 
2.373807e-004 
2.377848e-004 
2.382629e-004 
2.388101e-004 
2.394205e-004 
2.400884e-004 
2.408073e-004 
2.415708e-004 
2.423719e-004 
2.432036e-004 
2.440587e-004 
2.449299e-004 
2.458099e-004 
2.466913e-004 
2.475668e-004 
2.484292e-004 
2.492715e-004 
2.500870e-004 
2.508690e-004 
2.516115e-004 
2.523084e-004 
2.529546e-004 
2.535450e-004 
2.540754e-004 
2.545421e-004 
2.549424e-004 
2.552744e-004 
1.000000e+000 
1.000000e+000 
3.034042e-004 
3.043419e-004 
3.052570e-004 
3.061498e-004 
3.070208e-004 
3.078693e-004 
3.086942e-004 
3.094938e-004 
3.102662e-004 
3.110092e-004 
3.117206e-004 
3.123979e-004 
3.130390e-004 
3.136414e-004 
3.142030e-004 
3.147218e-004 
3.151959e-004 
3.156234e-004 
3.160028e-004 
3.163326e-004 
3.166116e-004 
3.168385e-004 
3.170124e-004 
3.171324e-004 
3.171978e-004 
3.172077e-004 
3.171617e-004 
3.170593e-004 
3.169000e-004 
3.166835e-004 
3.164094e-004 
3.160777e-004 
3.156879e-004 
3.152401e-004 
3.147340e-004 
3.141697e-004 
3.135472e-004 
3.128663e-004 
3.121274e-004 
3.113305e-004 
3.104758e-004 
3.095636e-004 
3.085942e-004 
3.075683e-004 
3.064861e-004 
3.053485e-004 
3.041562e-004 
3.029100e-004 
3.016110e-004 
3.002604e-004 
2.988594e-004 
2.974096e-004 
2.959126e-004 
2.943702e-004 
2.927845e-004 
2.911576e-004 
2.894921e-004 
2.877905e-004 
2.860556e-004 
2.842907e-004 
2.824988e-004 
2.806835e-004 
2.788485e-004 
2.769977e-004 
2.751353e-004 
2.732654e-004 
2.713927e-004 
2.695217e-004 
2.676572e-004 
2.658043e-004 
2.639679e-004 
2.621533e-004 
2.603656e-004 
2.586102e-004 
2.568923e-004 
2.552172e-004 
2.535901e-004 
2.520162e-004 
2.505005e-004 
2.490480e-004 
2.476633e-004 
2.463510e-004 
2.451153e-004 
2.439601e-004 
2.428891e-004 
2.419056e-004 
2.410124e-004 
2.402120e-004 
2.395064e-004 
2.388972e-004 
2.383855e-004 
2.379718e-004 
2.376561e-004 
2.374379e-004 
2.373162e-004 
2.372894e-004 
2.373554e-004 
2.375114e-004 
2.377544e-004 
2.380807e-004 
2.384860e-004 
2.389657e-004 
2.395148e-004 
2.401278e-004 
2.407989e-004 
2.415220e-004 
2.422905e-004 
2.430980e-004 
2.439374e-004 
2.448019e-004 
2.456843e-004 
2.465777e-004 
2.474748e-004 
2.483688e-004 
2.492527e-004 
2.501200e-004 
2.509640e-004 
2.517788e-004 
2.525585e-004 
2.532977e-004 
2.539914e-004 
2.546353e-004 
2.552256e-004 
2.557591e-004 
2.562338e-004 
2.566481e-004 
1.000000e+000 
1.000000e+000 
3.023104e-004 
3.033553e-004 
3.043658e-004 
3.053428e-004 
3.062872e-004 
3.071989e-004 
3.080776e-004 
3.089224e-004 
3.097322e-004 
3.105055e-004 